<?xml version="1.0"?>
 <VTKFile type="UnstructuredGrid" version="1.0" byte_order="LittleEndian" header_type="UInt64">
  <UnstructuredGrid>
    <FieldData>
     <DataArray type="Float64" Name="TimeValue" NumberOfTuples="1" format="ascii">
0.006
     </DataArray>
    </FieldData>
   <Piece NumberOfPoints="3548" NumberOfCells="3379">
    <PointData>
     <DataArray type="Float64" Name="pointP" format="ascii">
9.395452e+04 9.354299e+04 9.313418e+04 9.276264e+04 9.232076e+04 9.195939e+04 9.158499e+04 9.121824e+04 9.078557e+04 9.035869e+04 9.003984e+04 8.964036e+04 8.940878e+04 8.903698e+04 8.874281e+04 8.847447e+04 8.809163e+04 8.779717e+04 8.750959e+04 8.723347e+04 8.686872e+04 8.656379e+04 8.626897e+04 8.588934e+04 8.559403e+04 8.530503e+04 8.500699e+04 8.472749e+04 8.437033e+04 8.405548e+04 8.380856e+04 8.354836e+04 8.328882e+04 8.302636e+04 8.278066e+04 8.249107e+04 8.225693e+04 8.204924e+04 8.177604e+04 8.151226e+04 8.132856e+04 8.114741e+04 8.089489e+04 8.077784e+04 8.061536e+04 8.040267e+04 8.022136e+04 8.000444e+04 7.992278e+04 7.979674e+04 7.961727e+04 7.947325e+04 7.928805e+04 7.913524e+04 7.900567e+04 7.887971e+04 7.871988e+04 7.852136e+04 7.842191e+04 7.834279e+04 7.822575e+04 7.814012e+04 7.807290e+04 7.803065e+04 7.796692e+04 7.785860e+04 7.773666e+04 7.763546e+04 7.758635e+04 7.753609e+04 7.754817e+04 7.754181e+04 7.754095e+04 7.756349e+04 7.756031e+04 7.758763e+04 7.761682e+04 7.792785e+04 7.829806e+04 7.885741e+04 7.923104e+04 7.923104e+04 7.985989e+04 8.046087e+04 8.079701e+04 8.110833e+04 8.110833e+04 8.159073e+04 8.207295e+04 8.239705e+04 8.268626e+04 8.279729e+04 8.338870e+04 8.352390e+04 8.378734e+04 8.425422e+04 8.454371e+04 8.480409e+04 8.520868e+04 8.543842e+04 8.569194e+04 8.608963e+04 8.608963e+04 8.640670e+04 8.686498e+04 8.697705e+04 8.721941e+04 8.739794e+04 8.763378e+04 8.800584e+04 8.835854e+04 8.846627e+04 8.864462e+04 8.895617e+04 8.908178e+04 8.952390e+04 8.963047e+04 8.982502e+04 9.003162e+04 9.013834e+04 9.054545e+04 9.061095e+04 9.088846e+04 9.107874e+04 9.121963e+04 9.152930e+04 9.159801e+04 9.196473e+04 9.196473e+04 9.214729e+04 9.241008e+04 9.275443e+04 9.275443e+04 9.303385e+04 9.328393e+04 9.328393e+04 9.351103e+04 9.372849e+04 9.386526e+04 9.412302e+04 9.412302e+04 9.442432e+04 9.442432e+04 9.459813e+04 9.475471e+04 9.496888e+04 9.510570e+04 9.522086e+04 9.550128e+04 9.550128e+04 9.570132e+04 9.584031e+04 9.597297e+04 9.617831e+04 9.617831e+04 9.471821e+04 9.471821e+04 9.471821e+04 9.494302e+04 9.901213e+04 9.901213e+04 9.901213e+04 9.668712e+04 9.668712e+04 9.668712e+04 9.734118e+04 9.245719e+04 9.245719e+04 9.245719e+04 9.194997e+04 8.925335e+04 8.925335e+04 8.925335e+04 8.864993e+04 8.168109e+04 8.168109e+04 8.168109e+04 8.182244e+04 8.223535e+04 8.341706e+04 8.341706e+04 8.341706e+04 8.370001e+04 9.500986e+04 9.500986e+04 9.500986e+04 9.035225e+04 9.035225e+04 9.035225e+04 9.060449e+04 9.049923e+04 8.023430e+04 8.023430e+04 8.023430e+04 7.996260e+04 9.321575e+04 9.321575e+04 9.321575e+04 9.376129e+04 9.376129e+04 8.505217e+04 8.505217e+04 8.505217e+04 8.491665e+04 8.489386e+04 8.051838e+04 8.051838e+04 8.051838e+04 8.043209e+04 8.047427e+04 8.605773e+04 8.605773e+04 8.605773e+04 8.599852e+04 7.862891e+04 7.862891e+04 7.862891e+04 9.337583e+04 9.337583e+04 8.622217e+04 8.622217e+04 8.271016e+04 8.271016e+04 8.271016e+04 8.241866e+04 7.954410e+04 7.954410e+04 7.954410e+04 7.927563e+04 7.802495e+04 7.802495e+04 7.830507e+04 7.830507e+04 8.222804e+04 8.222804e+04 8.222804e+04 8.213635e+04 8.213635e+04 7.905313e+04 7.905313e+04 7.905313e+04 7.938740e+04 7.938740e+04 9.389541e+04 8.201883e+04 8.201883e+04 8.201883e+04 8.236570e+04 9.118384e+04 9.118384e+04 9.118384e+04 9.099360e+04 9.099360e+04 8.819055e+04 8.819055e+04 8.819055e+04 8.887201e+04 8.887201e+04 8.579527e+04 8.579527e+04 8.579527e+04 8.575668e+04 8.575668e+04 8.425432e+04 8.425432e+04 8.425432e+04 8.496448e+04 8.496448e+04 9.375059e+04 9.375059e+04 9.375059e+04 9.385974e+04 9.355852e+04 9.355852e+04 9.355852e+04 9.302587e+04 8.754155e+04 8.754155e+04 8.754155e+04 8.692234e+04 8.692234e+04 9.713069e+04 9.713069e+04 9.713069e+04 9.294731e+04 9.294731e+04 9.294731e+04 9.322300e+04 9.322300e+04 9.609502e+04 9.609502e+04 9.609502e+04 9.716240e+04 9.716240e+04 9.172539e+04 9.172539e+04 9.172539e+04 9.246220e+04 8.755056e+04 8.755056e+04 8.305435e+04 8.305435e+04 8.305435e+04 9.135208e+04 9.135208e+04 9.215445e+04 9.215445e+04 9.262125e+04 9.262125e+04 9.262125e+04 9.261047e+04 7.935697e+04 7.935697e+04 7.935697e+04 7.961321e+04 9.269714e+04 9.269714e+04 7.966280e+04 7.966280e+04 7.966280e+04 8.786460e+04 8.786460e+04 8.786460e+04 8.769639e+04 8.769639e+04 7.826321e+04 7.826321e+04 7.826321e+04 7.861202e+04 7.861202e+04 7.781066e+04 7.781066e+04 7.777002e+04 7.781141e+04 7.781141e+04 7.781141e+04 8.798522e+04 8.798522e+04 8.437033e+04 7.976295e+04 7.976295e+04 7.976295e+04 7.835804e+04 8.608363e+04 8.577743e+04 8.095571e+04 8.095571e+04 8.095571e+04 7.878988e+04 7.878988e+04 7.878988e+04 7.781520e+04 7.781520e+04 7.781520e+04 8.024451e+04 8.024451e+04 8.024451e+04 8.071524e+04 8.071524e+04 8.248955e+04 8.248955e+04 8.248955e+04 8.185183e+04 8.185183e+04 8.303382e+04 8.303382e+04 8.340485e+04 8.340485e+04 8.258317e+04 8.258317e+04 8.289069e+04 9.370811e+04 9.370811e+04 9.355103e+04 9.355103e+04 9.350162e+04 9.350162e+04 1.002907e+05 9.988262e+04 1.002907e+05 1.002907e+05 8.980924e+04 8.873046e+04 8.873046e+04 8.310325e+04 8.310325e+04 8.310325e+04 8.223711e+04 8.223711e+04 8.223711e+04 9.230454e+04 8.730397e+04 8.730397e+04 8.692220e+04 8.692220e+04 8.683915e+04 8.829437e+04 8.551257e+04 7.814012e+04 7.847362e+04 7.847362e+04 8.179588e+04 8.179588e+04 8.149039e+04 8.380856e+04 8.413096e+04 8.413096e+04 7.796337e+04 7.796337e+04 7.796337e+04 7.775014e+04 7.789769e+04 9.232076e+04 9.246524e+04 9.246524e+04 8.278066e+04 8.308191e+04 8.308191e+04 9.389541e+04 8.753554e+04 8.753554e+04 8.323284e+04 9.085551e+04 9.085551e+04 9.085551e+04 7.915399e+04 8.236728e+04 8.236728e+04 8.205234e+04 8.876367e+04 8.876367e+04 8.876367e+04 8.922083e+04 8.922083e+04 8.902238e+04 9.021654e+04 9.021654e+04 8.349505e+04 9.121824e+04 9.144993e+04 7.798153e+04 7.798153e+04 7.810307e+04 7.835294e+04 7.830339e+04 7.830339e+04 7.850051e+04 7.871988e+04 7.900616e+04 7.900616e+04 7.978635e+04 9.195939e+04 9.217326e+04 7.830835e+04 8.536125e+04 7.770562e+04 9.014331e+04 9.014331e+04 8.028029e+04 8.022454e+04 7.794271e+04 8.114153e+04 8.114153e+04 8.114153e+04 8.145258e+04 8.145258e+04 9.282858e+04 9.282858e+04 8.399652e+04 8.978041e+04 8.959806e+04 7.825931e+04 7.934784e+04 7.934784e+04 9.324137e+04 8.731584e+04 8.302527e+04 8.094921e+04 9.257138e+04 8.330391e+04 8.363225e+04 8.290555e+04 8.307713e+04 8.307713e+04 8.625659e+04 7.781991e+04 8.131134e+04 8.163649e+04 7.849165e+04 9.209039e+04 9.209039e+04 9.187244e+04 8.322547e+04 8.370384e+04 8.370384e+04 7.918849e+04 9.046266e+04 9.046266e+04 9.046266e+04 9.027747e+04 7.837483e+04 7.831377e+04 8.879679e+04 8.879679e+04 8.879679e+04 8.825948e+04 7.992477e+04 8.111805e+04 8.004255e+04 8.004255e+04 8.544334e+04 8.535597e+04 8.429236e+04 8.453483e+04 8.030801e+04 9.080277e+04 8.045001e+04 8.069025e+04 8.069025e+04 8.088664e+04 8.088664e+04 7.967861e+04 7.967861e+04 8.646460e+04 8.646460e+04 7.990552e+04 8.249183e+04 9.169853e+04 9.169853e+04 8.848319e+04 8.848319e+04 8.937449e+04 8.085432e+04 8.980177e+04 8.931468e+04 8.271631e+04 8.292414e+04 7.826367e+04 7.826367e+04 7.864312e+04 7.901630e+04 9.267823e+04 7.890217e+04 7.890217e+04 8.316023e+04 8.348129e+04 7.851398e+04 7.863115e+04 7.872386e+04 8.394742e+04 7.907382e+04 9.034910e+04 9.034910e+04 8.420158e+04 9.330569e+04 7.966763e+04 8.178210e+04 9.193761e+04 8.617729e+04 8.617729e+04 8.617729e+04 8.643970e+04 8.643970e+04 8.514555e+04 8.496271e+04 8.740427e+04 8.688514e+04 8.140921e+04 7.872475e+04 8.905704e+04 8.268595e+04 7.859920e+04 8.560970e+04 8.086272e+04 7.947649e+04 7.947649e+04 7.947649e+04 8.439862e+04 8.445662e+04 8.892521e+04 8.920834e+04 7.916779e+04 7.916779e+04 8.123725e+04 8.099890e+04 8.099890e+04 8.072299e+04 8.072299e+04 8.821033e+04 8.023365e+04 8.040318e+04 8.040318e+04 8.658282e+04 8.658282e+04 8.931589e+04 8.725141e+04 8.725141e+04 8.712332e+04 8.016692e+04 8.016692e+04 8.013802e+04 8.013802e+04 8.013802e+04 7.975294e+04 8.868638e+04 9.329937e+04 8.319072e+04 8.319072e+04 8.340731e+04 9.390005e+04 8.764068e+04 8.834927e+04 8.187793e+04 7.908617e+04 9.005795e+04 9.032481e+04 8.440169e+04 8.440169e+04 8.990642e+04 8.990642e+04 8.497343e+04 8.078182e+04 8.157069e+04 8.157069e+04 8.734128e+04 8.799534e+04 9.390005e+04 8.726953e+04 8.623433e+04 8.623433e+04 9.058274e+04 8.139404e+04 8.139404e+04 8.021205e+04 8.112995e+04 8.112995e+04 9.360599e+04 9.360599e+04 9.311221e+04 8.684645e+04 8.684645e+04 8.684645e+04 8.633635e+04 8.050147e+04 9.229488e+04 9.451951e+04 8.772049e+04 8.772049e+04 8.422473e+04 8.422473e+04 8.362288e+04 9.402673e+04 8.297221e+04 8.235904e+04 8.235904e+04 8.711911e+04 8.117940e+04 8.117940e+04 8.189483e+04 8.298327e+04 8.827765e+04 8.416014e+04 8.416014e+04 8.416014e+04 9.223916e+04 9.140883e+04 8.516837e+04 8.596978e+04 8.596978e+04 8.566238e+04 8.566238e+04 8.566238e+04 8.483906e+04 8.216700e+04 8.779103e+04 8.779103e+04 8.853802e+04 8.279636e+04 8.505778e+04 8.505778e+04 8.505778e+04 8.500123e+04 8.656019e+04 8.688495e+04 9.576559e+04 9.461906e+04 9.400019e+04 9.117403e+04 8.777242e+04 8.875367e+04 8.960756e+04 8.960756e+04 8.441544e+04 8.441544e+04 8.341699e+04 8.361415e+04 8.994060e+04 8.994060e+04 8.994060e+04 8.452680e+04 9.502469e+04 8.580623e+04 9.556800e+04 9.571463e+04 8.889062e+04 8.958516e+04 8.486221e+04 8.381883e+04 8.490170e+04 8.580703e+04 8.580703e+04 9.165692e+04 9.165692e+04 9.165692e+04 9.715666e+04 8.880813e+04 8.936139e+04 8.953363e+04 9.187313e+04 9.003931e+04 9.065614e+04 9.561791e+04 9.378054e+04 8.790709e+04 8.790709e+04 8.790709e+04 8.657333e+04 8.618114e+04 9.197175e+04 9.197175e+04 8.924881e+04 8.924881e+04 9.350783e+04 9.415570e+04 9.061898e+04 9.472726e+04 9.098727e+04 9.795060e+04 9.394203e+04 9.394203e+04 9.582754e+04 9.747836e+04 9.747836e+04 9.497903e+04 9.497903e+04 9.605998e+04 9.605998e+04 9.374339e+04 9.704724e+04 9.704724e+04 9.474990e+04 9.821598e+04 9.931994e+04 9.984830e+04 9.584675e+04 9.584675e+04 9.584675e+04 8.337127e+04 8.337127e+04 8.337127e+04 8.328763e+04 8.328763e+04 9.504040e+04 9.504040e+04 9.504040e+04 9.538784e+04 8.292896e+04 8.292896e+04 8.317709e+04 8.317709e+04 7.940239e+04 7.940239e+04 7.940239e+04 9.458976e+04 9.458976e+04 9.458976e+04 9.449480e+04 8.977795e+04 8.977795e+04 8.977795e+04 9.022685e+04 9.108775e+04 9.108775e+04 8.814655e+04 8.814655e+04 8.814655e+04 8.691547e+04 8.691547e+04 8.691547e+04 8.481055e+04 8.481055e+04 8.481055e+04 8.431439e+04 8.431439e+04 8.431439e+04 8.411557e+04 9.292170e+04 9.292170e+04 9.292170e+04 9.135112e+04 9.135112e+04 9.135112e+04 9.360936e+04 9.360936e+04 9.360936e+04 9.249843e+04 9.249843e+04 9.249843e+04 9.205392e+04 9.205392e+04 9.604203e+04 9.604203e+04 9.522424e+04 9.433042e+04 9.743537e+04 9.743537e+04 9.743537e+04 9.271859e+04 9.271859e+04 8.745627e+04 8.745627e+04 8.745627e+04 8.940931e+04 8.940931e+04 8.940931e+04 8.711379e+04 8.711379e+04 8.711379e+04 8.681505e+04 8.614502e+04 8.614502e+04 8.614502e+04 8.627085e+04 8.580804e+04 8.580804e+04 8.580804e+04 8.743778e+04 8.743778e+04 8.743778e+04 8.739330e+04 8.720810e+04 8.919408e+04 8.919408e+04 8.919408e+04 8.585228e+04 8.585228e+04 8.676697e+04 8.676697e+04 8.701813e+04 8.774451e+04 8.774451e+04 9.024274e+04 9.024274e+04 9.024274e+04 9.106848e+04 9.106848e+04 9.094801e+04 9.094801e+04 9.094801e+04 8.700301e+04 9.246048e+04 9.246048e+04 9.246048e+04 9.492625e+04 9.460604e+04 9.930648e+04 9.930648e+04 9.661261e+04 9.661261e+04 9.085208e+04 9.085208e+04 9.085208e+04 9.117070e+04 9.147743e+04 8.362112e+04 8.362112e+04 8.726097e+04 8.288437e+04 8.571983e+04 8.571983e+04 8.571983e+04 8.827147e+04 8.453099e+04 8.453099e+04 8.734502e+04 8.898752e+04 8.898752e+04 8.902574e+04 9.220424e+04 9.220424e+04 8.956380e+04 8.956380e+04 8.956380e+04 8.151907e+04 8.151907e+04 8.151907e+04 8.401844e+04 8.377311e+04 9.213858e+04 8.249642e+04 8.249642e+04 8.249642e+04 8.203569e+04 8.549348e+04 8.549348e+04 9.026969e+04 9.026969e+04 8.800657e+04 8.459173e+04 8.459173e+04 8.504292e+04 8.504292e+04 8.831708e+04 8.831708e+04 8.831708e+04 9.373587e+04 9.373587e+04 9.494984e+04 9.494984e+04 8.646891e+04 8.891042e+04 8.891042e+04 8.891042e+04 8.786798e+04 8.786798e+04 9.119956e+04 9.119956e+04 8.339370e+04 8.339370e+04 9.438404e+04 9.438404e+04 8.862346e+04 9.000933e+04 9.000933e+04 9.002195e+04 9.002195e+04 8.483848e+04 8.483848e+04 8.483848e+04 8.965880e+04 8.965880e+04 8.965880e+04 8.435054e+04 8.683588e+04 8.781531e+04 8.821173e+04 8.821173e+04 8.844996e+04 8.528134e+04 9.047484e+04 9.047484e+04 9.151401e+04 9.151401e+04 9.151401e+04 8.399472e+04 8.405673e+04 8.405673e+04 9.166739e+04 9.166739e+04 9.185376e+04 8.999682e+04 8.992885e+04 8.992885e+04 9.392278e+04 9.392278e+04 9.392278e+04 9.213747e+04 9.213747e+04 9.475422e+04 9.094501e+04 8.836720e+04 8.836720e+04 9.626332e+04 8.772870e+04 8.772870e+04 8.878636e+04 8.934816e+04 8.934816e+04 8.933303e+04 9.310704e+04 9.310704e+04 8.723158e+04 8.723158e+04 9.220904e+04 8.932122e+04 8.932122e+04 9.024945e+04 9.024945e+04 9.042742e+04 9.195768e+04 8.854621e+04 8.854621e+04 9.058303e+04 9.009079e+04 8.508151e+04 8.508151e+04 8.817052e+04 8.908932e+04 9.376632e+04 9.376632e+04 9.376632e+04 9.315679e+04 9.315679e+04 9.315679e+04 9.092380e+04 9.092380e+04 9.506107e+04 9.506107e+04 9.506107e+04 8.962686e+04 9.379827e+04 9.311730e+04 9.326402e+04 9.431663e+04 9.431663e+04 9.431663e+04 9.061535e+04 9.261285e+04 9.261285e+04 9.196610e+04 9.196610e+04 9.196610e+04 9.629793e+04 9.014581e+04 9.227532e+04 9.227532e+04 9.300274e+04 9.300274e+04 9.300274e+04 9.276954e+04 9.390719e+04 8.798934e+04 8.798934e+04 8.798934e+04 8.871529e+04 8.871529e+04 8.918084e+04 9.633842e+04 9.343061e+04 9.148413e+04 9.343884e+04 9.343884e+04 9.342878e+04 9.345469e+04 9.345469e+04 9.556212e+04 9.556212e+04 9.556212e+04 9.261432e+04 9.257521e+04 8.993187e+04 9.404545e+04 9.429373e+04 9.369155e+04 9.025869e+04 9.636191e+04 9.636191e+04 9.641889e+04 9.525856e+04 9.525856e+04 9.316632e+04 9.604069e+04 9.604069e+04 9.604069e+04 9.517848e+04 9.517848e+04 9.157817e+04 9.157817e+04 9.188770e+04 9.451558e+04 9.451558e+04 9.541765e+04 9.263407e+04 9.328442e+04 9.573167e+04 9.656602e+04 9.525115e+04 9.374777e+04 9.656602e+04 9.776691e+04 8.027776e+04 8.027776e+04 8.557898e+04 8.557898e+04 8.119242e+04 8.119242e+04 8.496619e+04 8.387896e+04 8.112550e+04 8.061603e+04 7.901127e+04 9.731326e+04 9.731326e+04 9.391401e+04 8.743537e+04 8.704080e+04 9.554344e+04 9.554344e+04 8.004655e+04 8.037627e+04 7.976711e+04 8.023597e+04 8.023597e+04 8.023597e+04 8.152119e+04 8.152119e+04 8.152119e+04 7.975490e+04 8.188271e+04 8.188271e+04 8.209877e+04 8.209877e+04 8.058266e+04 8.120143e+04 8.100198e+04 9.209870e+04 9.716440e+04 9.827091e+04 9.926724e+04 9.492113e+04 9.492113e+04 9.070741e+04 8.273537e+04 8.087071e+04 8.204896e+04 8.239389e+04 8.239389e+04 8.426063e+04 8.643812e+04 8.876645e+04 9.043098e+04 9.043098e+04 9.203673e+04 9.520222e+04 9.431621e+04 9.613292e+04 9.613292e+04 9.613292e+04 9.170464e+04 9.337745e+04 9.283615e+04 9.283615e+04 8.574697e+04 9.169633e+04 9.169633e+04 8.865842e+04 8.615922e+04 8.975097e+04 8.975097e+04 9.591640e+04 9.591640e+04 9.591640e+04 9.571236e+04 9.571236e+04 9.618055e+04 8.926029e+04 8.993589e+04 9.077791e+04 9.256718e+04 9.506256e+04 8.521317e+04 8.763366e+04 8.775451e+04 9.247744e+04 8.935322e+04 9.350973e+04 9.130853e+04 9.322551e+04 9.322551e+04 9.459614e+04 9.247077e+04 9.314688e+04 9.450703e+04 9.265150e+04 9.597931e+04 9.533545e+04 9.533545e+04 9.550588e+04 9.431309e+04 9.513866e+04 9.270389e+04 9.270389e+04 9.200999e+04 9.190817e+04 9.390827e+04 9.369267e+04 9.490915e+04 9.403725e+04 9.549835e+04 9.250568e+04 9.530981e+04 9.530981e+04 9.530981e+04 9.538322e+04 9.503366e+04 9.503366e+04 9.408010e+04 9.408010e+04 9.476587e+04 9.465946e+04 9.465946e+04 9.590970e+04 9.421116e+04 9.480301e+04 9.445955e+04 9.596938e+04 9.564184e+04 9.626332e+04 9.626332e+04 9.611494e+04 9.218948e+04 9.549764e+04 9.549764e+04 9.566602e+04 9.566602e+04 9.470717e+04 9.596837e+04 9.586906e+04 9.567093e+04 9.567093e+04 7.783505e+04 7.783505e+04 7.773537e+04 7.763788e+04 7.756946e+04 7.761977e+04 7.760506e+04 7.759423e+04 8.194464e+04 8.194464e+04 8.194464e+04 8.155994e+04 8.052349e+04 8.052349e+04 8.052349e+04 8.045586e+04 7.786033e+04 7.786033e+04 7.793131e+04 7.793131e+04 7.794386e+04 7.786897e+04 7.786897e+04 7.786897e+04 7.767857e+04 7.948842e+04 7.948842e+04 7.948842e+04 7.955460e+04 7.980465e+04 8.010806e+04 7.787428e+04 7.787428e+04 7.814306e+04 7.781418e+04 7.781418e+04 7.781418e+04 7.877259e+04 7.877259e+04 7.877259e+04 7.839379e+04 7.839379e+04 7.853394e+04 7.911444e+04 7.791459e+04 7.808149e+04 7.808149e+04 7.802493e+04 7.829806e+04 7.905097e+04 7.905097e+04 7.905097e+04 7.941887e+04 7.941887e+04 7.853394e+04 7.838581e+04 7.852281e+04 7.815866e+04 7.860577e+04 7.860577e+04 7.883956e+04 7.882135e+04 7.910323e+04 7.957833e+04 8.010071e+04 8.142115e+04 8.142115e+04 8.237152e+04 8.316937e+04 8.425871e+04 8.425871e+04 8.425871e+04 8.521177e+04 8.521177e+04 8.749646e+04 8.912856e+04 8.912856e+04 9.491125e+04 9.019157e+04 9.019157e+04 9.019157e+04 9.024891e+04 9.024891e+04 8.861235e+04 8.861235e+04 8.861235e+04 8.268626e+04 8.268626e+04 9.048209e+04 9.585249e+04 9.585249e+04 9.585249e+04 8.720694e+04 8.720694e+04 8.720694e+04 8.755527e+04 8.769271e+04 9.374624e+04 9.374624e+04 9.374624e+04 8.616074e+04 8.616074e+04 8.616074e+04 8.260827e+04 8.260827e+04 8.260827e+04 8.266280e+04 8.266280e+04 8.444983e+04 8.444983e+04 8.444983e+04 8.860753e+04 8.860753e+04 8.379564e+04 8.379564e+04 8.379564e+04 8.391949e+04 8.391949e+04 8.537481e+04 8.537481e+04 8.537481e+04 9.336035e+04 9.336035e+04 9.336035e+04 8.605109e+04 8.605109e+04 8.605109e+04 8.542017e+04 8.542017e+04 9.306032e+04 9.306032e+04 9.306032e+04 9.354556e+04 9.354556e+04 9.843107e+04 9.517268e+04 9.517268e+04 9.517268e+04 9.550000e+04 9.195058e+04 9.195058e+04 9.195058e+04 9.240466e+04 9.457128e+04 9.457128e+04 9.457128e+04 8.815159e+04 8.742742e+04 8.913393e+04 8.913393e+04 8.913393e+04 8.886417e+04 9.513770e+04 9.513770e+04 9.513770e+04 8.448069e+04 8.448069e+04 8.448069e+04 8.493733e+04 8.493733e+04 8.626550e+04 8.626550e+04 8.626550e+04 8.610463e+04 8.531504e+04 8.531504e+04 8.600739e+04 8.600739e+04 8.425422e+04 8.457335e+04 8.472432e+04 8.845311e+04 7.930971e+04 8.428037e+04 8.316937e+04 8.307718e+04 8.307718e+04 9.401503e+04 9.401503e+04 9.401503e+04 8.960848e+04 8.960848e+04 9.650978e+04 9.650978e+04 9.650978e+04 8.230495e+04 8.230495e+04 8.230495e+04 9.107874e+04 9.107874e+04 8.697705e+04 8.697705e+04 8.925183e+04 8.925183e+04 8.925183e+04 8.737615e+04 8.737615e+04 8.737615e+04 8.651826e+04 8.651826e+04 8.651826e+04 8.212544e+04 9.303385e+04 9.303385e+04 8.800584e+04 8.800584e+04 8.895617e+04 8.895617e+04 8.515742e+04 8.515742e+04 8.484034e+04 8.333104e+04 8.333104e+04 8.333104e+04 8.343598e+04 7.957767e+04 7.997251e+04 8.428720e+04 9.136251e+04 9.136251e+04 9.136251e+04 8.582217e+04 8.582217e+04 8.205575e+04 8.205575e+04 8.163832e+04 8.163832e+04 8.163760e+04 8.163760e+04 8.707114e+04 8.707114e+04 8.660301e+04 8.353487e+04 8.353487e+04 9.053369e+04 9.053369e+04 9.053369e+04 8.611485e+04 8.661059e+04 8.446737e+04 8.976312e+04 8.976312e+04 8.976312e+04 8.947280e+04 8.947280e+04 8.947280e+04 8.815190e+04 9.118040e+04 9.118040e+04 9.118040e+04 9.178574e+04 9.178574e+04 9.178574e+04 8.758978e+04 8.758978e+04 8.244230e+04 8.292945e+04 8.916033e+04 8.916033e+04 8.862841e+04 8.862841e+04 8.843728e+04 8.873001e+04 8.538369e+04 8.777480e+04 8.751308e+04 8.751308e+04 8.718054e+04 8.975073e+04 9.160601e+04 9.160601e+04 8.496558e+04 8.466047e+04 9.000986e+04 9.000986e+04 9.130946e+04 8.842659e+04 8.842659e+04 8.802833e+04 9.078969e+04 9.078969e+04 9.078969e+04 8.872812e+04 8.897575e+04 9.051345e+04 9.051345e+04 9.051345e+04 9.201162e+04 9.201162e+04 8.385414e+04 8.782619e+04 8.659123e+04 8.659123e+04 8.683815e+04 9.304322e+04 8.786835e+04 8.786835e+04 8.786835e+04 8.804066e+04 8.840923e+04 9.363790e+04 9.363790e+04 9.363790e+04 9.331253e+04 9.219414e+04 9.219414e+04 9.220904e+04 9.220904e+04 8.964375e+04 8.718405e+04 8.784360e+04 8.747123e+04 9.006072e+04 9.006072e+04 9.006072e+04 9.022774e+04 9.022774e+04 9.299763e+04 9.299763e+04 9.299763e+04 8.838863e+04 9.222050e+04 9.247214e+04 9.247214e+04 9.057159e+04 9.057159e+04 8.951943e+04 8.905546e+04 9.146829e+04 9.146829e+04 9.146829e+04 9.355743e+04 9.355743e+04 9.464390e+04 9.464390e+04 9.464390e+04 9.167204e+04 9.167204e+04 9.125307e+04 9.250490e+04 9.250490e+04 9.563860e+04 9.563860e+04 9.528165e+04 9.528165e+04 9.114899e+04 9.051074e+04 9.051074e+04 9.507644e+04 9.507644e+04 8.945024e+04 9.285213e+04 9.258921e+04 9.258921e+04 9.139639e+04 9.334878e+04 9.334878e+04 9.190478e+04 9.190478e+04 9.190478e+04 9.229383e+04 9.482048e+04 9.482048e+04 9.482048e+04 9.405071e+04 9.460333e+04 8.862405e+04 8.862405e+04 8.862405e+04 9.055483e+04 9.278077e+04 9.375071e+04 9.296029e+04 9.238579e+04 9.136989e+04 8.977600e+04 9.410404e+04 9.410404e+04 9.476713e+04 9.637995e+04 9.637995e+04 9.637995e+04 9.386223e+04 9.389296e+04 9.085361e+04 9.417810e+04 9.444739e+04 9.444908e+04 9.110793e+04 9.489750e+04 9.489750e+04 9.406269e+04 9.183723e+04 9.672661e+04 9.668860e+04 9.252004e+04 9.252004e+04 9.319549e+04 9.547642e+04 9.672661e+04 9.576873e+04 9.576873e+04 9.576873e+04 9.588598e+04 9.283471e+04 9.440497e+04 9.692674e+04 9.627287e+04 9.627287e+04 9.627287e+04 9.590094e+04 9.590094e+04 9.692674e+04 9.490822e+04 9.490822e+04 9.673233e+04 9.418665e+04 9.418665e+04 9.412364e+04 9.491436e+04 9.711260e+04 9.711260e+04 9.711260e+04 9.553216e+04 9.588261e+04 9.588261e+04 9.677629e+04 9.491125e+04 9.491125e+04 9.729584e+04 9.689518e+04 9.701359e+04 9.642267e+04 9.642267e+04 9.620781e+04 9.752831e+04 9.750746e+04 9.750746e+04 9.785556e+04 9.729584e+04 9.729584e+04 9.770042e+04 8.846627e+04 8.378734e+04 8.110833e+04 7.985989e+04 7.985989e+04 8.721941e+04 8.541110e+04 8.541110e+04 8.343958e+04 8.326170e+04 8.159073e+04 8.159073e+04 8.079701e+04 8.299671e+04 7.973999e+04 8.042369e+04 8.144040e+04 9.026667e+04 9.360948e+04 9.567076e+04 8.659417e+04 8.067747e+04 8.084146e+04 8.262549e+04 9.214580e+04 9.216969e+04 9.496416e+04 9.537004e+04 8.658872e+04 9.523969e+04 8.608612e+04 9.543979e+04 9.611252e+04 9.611252e+04 9.611252e+04 9.432126e+04 8.963047e+04 8.963047e+04 8.990524e+04 8.632160e+04 8.569194e+04 8.733020e+04 9.088846e+04 8.763378e+04 8.982502e+04 9.196473e+04 9.241008e+04 9.241008e+04 9.328393e+04 9.412302e+04 9.003162e+04 9.188129e+04 9.188129e+04 9.023321e+04 9.152930e+04 9.442432e+04 9.205449e+04 9.420386e+04 9.459813e+04 9.251408e+04 9.407413e+04 9.386526e+04 9.386526e+04 9.275443e+04 9.351103e+04 9.332476e+04 9.550128e+04 9.570132e+04 9.570132e+04 9.475471e+04 9.224611e+04 9.510570e+04 9.510570e+04 9.387370e+04 9.584080e+04 9.584080e+04 9.545894e+04 9.545894e+04 9.453849e+04 9.496888e+04 9.412804e+04 9.399896e+04 9.616986e+04 9.616986e+04 9.616986e+04 9.274069e+04 9.486078e+04 9.522086e+04 9.610781e+04 9.433674e+04 9.272498e+04 9.311815e+04 9.541239e+04 9.352618e+04 9.497612e+04 9.497612e+04 9.488172e+04 9.588118e+04 9.588118e+04 9.453005e+04 9.453005e+04 9.436559e+04 9.090337e+04 9.515533e+04 9.557261e+04 9.573875e+04 9.647648e+04 9.622925e+04 9.558204e+04 9.502362e+04 9.530645e+04 9.600941e+04 9.395452e+04 9.354299e+04 9.313418e+04 9.276264e+04 9.232076e+04 9.195939e+04 9.158499e+04 9.121824e+04 9.078557e+04 9.035869e+04 9.003984e+04 8.964036e+04 8.940878e+04 8.903698e+04 8.874281e+04 8.847447e+04 8.809163e+04 8.779717e+04 8.750959e+04 8.723347e+04 8.686872e+04 8.656379e+04 8.626897e+04 8.588934e+04 8.559403e+04 8.530503e+04 8.500699e+04 8.472749e+04 8.437033e+04 8.405548e+04 8.380856e+04 8.354836e+04 8.328882e+04 8.302636e+04 8.278066e+04 8.249107e+04 8.225693e+04 8.204924e+04 8.177604e+04 8.151226e+04 8.132856e+04 8.114741e+04 8.089489e+04 8.077784e+04 8.061536e+04 8.040267e+04 8.022136e+04 8.000444e+04 7.992278e+04 7.979674e+04 7.961727e+04 7.947325e+04 7.928805e+04 7.913524e+04 7.900567e+04 7.887971e+04 7.871988e+04 7.852136e+04 7.842191e+04 7.834279e+04 7.822575e+04 7.814012e+04 7.807290e+04 7.803065e+04 7.796692e+04 7.785860e+04 7.773666e+04 7.763546e+04 7.758635e+04 7.753609e+04 7.754817e+04 7.754181e+04 7.754095e+04 7.756349e+04 7.756031e+04 7.758763e+04 7.761682e+04 7.792785e+04 7.829806e+04 7.885741e+04 7.923104e+04 7.923104e+04 7.985989e+04 8.046087e+04 8.079701e+04 8.110833e+04 8.110833e+04 8.159073e+04 8.207295e+04 8.239705e+04 8.268626e+04 8.279729e+04 8.338870e+04 8.352390e+04 8.378734e+04 8.425422e+04 8.454371e+04 8.480409e+04 8.520868e+04 8.543842e+04 8.569194e+04 8.608963e+04 8.608963e+04 8.640670e+04 8.686498e+04 8.697705e+04 8.721941e+04 8.739794e+04 8.763378e+04 8.800584e+04 8.835854e+04 8.846627e+04 8.864462e+04 8.895617e+04 8.908178e+04 8.952390e+04 8.963047e+04 8.982502e+04 9.003162e+04 9.013834e+04 9.054545e+04 9.061095e+04 9.088846e+04 9.107874e+04 9.121963e+04 9.152930e+04 9.159801e+04 9.196473e+04 9.196473e+04 9.214729e+04 9.241008e+04 9.275443e+04 9.275443e+04 9.303385e+04 9.328393e+04 9.328393e+04 9.351103e+04 9.372849e+04 9.386526e+04 9.412302e+04 9.412302e+04 9.442432e+04 9.442432e+04 9.459813e+04 9.475471e+04 9.496888e+04 9.510570e+04 9.522086e+04 9.550128e+04 9.550128e+04 9.570132e+04 9.584031e+04 9.597297e+04 9.617831e+04 9.617831e+04 9.471821e+04 9.471821e+04 9.471821e+04 9.494302e+04 9.901213e+04 9.901213e+04 9.901213e+04 9.668712e+04 9.668712e+04 9.668712e+04 9.734118e+04 9.245719e+04 9.245719e+04 9.245719e+04 9.194997e+04 8.925335e+04 8.925335e+04 8.925335e+04 8.864993e+04 8.168109e+04 8.168109e+04 8.168109e+04 8.182244e+04 8.223535e+04 8.341706e+04 8.341706e+04 8.341706e+04 8.370001e+04 9.500986e+04 9.500986e+04 9.500986e+04 9.035225e+04 9.035225e+04 9.035225e+04 9.060449e+04 9.049923e+04 8.023430e+04 8.023430e+04 8.023430e+04 7.996260e+04 9.321575e+04 9.321575e+04 9.321575e+04 9.376129e+04 9.376129e+04 8.505217e+04 8.505217e+04 8.505217e+04 8.491665e+04 8.489386e+04 8.051838e+04 8.051838e+04 8.051838e+04 8.043209e+04 8.047427e+04 8.605773e+04 8.605773e+04 8.605773e+04 8.599852e+04 7.862891e+04 7.862891e+04 7.862891e+04 9.337583e+04 9.337583e+04 8.622217e+04 8.622217e+04 8.271016e+04 8.271016e+04 8.271016e+04 8.241866e+04 7.954410e+04 7.954410e+04 7.954410e+04 7.927563e+04 7.802495e+04 7.802495e+04 7.830507e+04 7.830507e+04 8.222804e+04 8.222804e+04 8.222804e+04 8.213635e+04 8.213635e+04 7.905313e+04 7.905313e+04 7.905313e+04 7.938740e+04 7.938740e+04 9.389541e+04 8.201883e+04 8.201883e+04 8.201883e+04 8.236570e+04 9.118384e+04 9.118384e+04 9.118384e+04 9.099360e+04 9.099360e+04 8.819055e+04 8.819055e+04 8.819055e+04 8.887201e+04 8.887201e+04 8.579527e+04 8.579527e+04 8.579527e+04 8.575668e+04 8.575668e+04 8.425432e+04 8.425432e+04 8.425432e+04 8.496448e+04 8.496448e+04 9.375059e+04 9.375059e+04 9.375059e+04 9.385974e+04 9.355852e+04 9.355852e+04 9.355852e+04 9.302587e+04 8.754155e+04 8.754155e+04 8.754155e+04 8.692234e+04 8.692234e+04 9.713069e+04 9.713069e+04 9.713069e+04 9.294731e+04 9.294731e+04 9.294731e+04 9.322300e+04 9.322300e+04 9.609502e+04 9.609502e+04 9.609502e+04 9.716240e+04 9.716240e+04 9.172539e+04 9.172539e+04 9.172539e+04 9.246220e+04 8.755056e+04 8.755056e+04 8.305435e+04 8.305435e+04 8.305435e+04 9.135208e+04 9.135208e+04 9.215445e+04 9.215445e+04 9.262125e+04 9.262125e+04 9.262125e+04 9.261047e+04 7.935697e+04 7.935697e+04 7.935697e+04 7.961321e+04 9.269714e+04 9.269714e+04 7.966280e+04 7.966280e+04 7.966280e+04 8.786460e+04 8.786460e+04 8.786460e+04 8.769639e+04 8.769639e+04 7.826321e+04 7.826321e+04 7.826321e+04 7.861202e+04 7.861202e+04 7.781066e+04 7.781066e+04 7.777002e+04 7.781141e+04 7.781141e+04 7.781141e+04 8.798522e+04 8.798522e+04 8.437033e+04 7.976295e+04 7.976295e+04 7.976295e+04 7.835804e+04 8.608363e+04 8.577743e+04 8.095571e+04 8.095571e+04 8.095571e+04 7.878988e+04 7.878988e+04 7.878988e+04 7.781520e+04 7.781520e+04 7.781520e+04 8.024451e+04 8.024451e+04 8.024451e+04 8.071524e+04 8.071524e+04 8.248955e+04 8.248955e+04 8.248955e+04 8.185183e+04 8.185183e+04 8.303382e+04 8.303382e+04 8.340485e+04 8.340485e+04 8.258317e+04 8.258317e+04 8.289069e+04 9.370811e+04 9.370811e+04 9.355103e+04 9.355103e+04 9.350162e+04 9.350162e+04 1.002907e+05 9.988262e+04 1.002907e+05 1.002907e+05 8.980924e+04 8.873046e+04 8.873046e+04 8.310325e+04 8.310325e+04 8.310325e+04 8.223711e+04 8.223711e+04 8.223711e+04 9.230454e+04 8.730397e+04 8.730397e+04 8.692220e+04 8.692220e+04 8.683915e+04 8.829437e+04 8.551257e+04 7.814012e+04 7.847362e+04 7.847362e+04 8.179588e+04 8.179588e+04 8.149039e+04 8.380856e+04 8.413096e+04 8.413096e+04 7.796337e+04 7.796337e+04 7.796337e+04 7.775014e+04 7.789769e+04 9.232076e+04 9.246524e+04 9.246524e+04 8.278066e+04 8.308191e+04 8.308191e+04 9.389541e+04 8.753554e+04 8.753554e+04 8.323284e+04 9.085551e+04 9.085551e+04 9.085551e+04 7.915399e+04 8.236728e+04 8.236728e+04 8.205234e+04 8.876367e+04 8.876367e+04 8.876367e+04 8.922083e+04 8.922083e+04 8.902238e+04 9.021654e+04 9.021654e+04 8.349505e+04 9.121824e+04 9.144993e+04 7.798153e+04 7.798153e+04 7.810307e+04 7.835294e+04 7.830339e+04 7.830339e+04 7.850051e+04 7.871988e+04 7.900616e+04 7.900616e+04 7.978635e+04 9.195939e+04 9.217326e+04 7.830835e+04 8.536125e+04 7.770562e+04 9.014331e+04 9.014331e+04 8.028029e+04 8.022454e+04 7.794271e+04 8.114153e+04 8.114153e+04 8.114153e+04 8.145258e+04 8.145258e+04 9.282858e+04 9.282858e+04 8.399652e+04 8.978041e+04 8.959806e+04 7.825931e+04 7.934784e+04 7.934784e+04 9.324137e+04 8.731584e+04 8.302527e+04 8.094921e+04 9.257138e+04 8.330391e+04 8.363225e+04 8.290555e+04 8.307713e+04 8.307713e+04 8.625659e+04 7.781991e+04 8.131134e+04 8.163649e+04 7.849165e+04 9.209039e+04 9.209039e+04 9.187244e+04 8.322547e+04 8.370384e+04 8.370384e+04 7.918849e+04 9.046266e+04 9.046266e+04 9.046266e+04 9.027747e+04 7.837483e+04 7.831377e+04 8.