<?xml version="1.0"?>
 <VTKFile type="UnstructuredGrid" version="1.0" byte_order="LittleEndian" header_type="UInt64">
  <UnstructuredGrid>
    <FieldData>
     <DataArray type="Float64" Name="TimeValue" NumberOfTuples="1" format="ascii">
8e-05
     </DataArray>
    </FieldData>
   <Piece NumberOfPoints="1918" NumberOfCells="897">
    <PointData>
     <DataArray type="Float64" Name="pointP" format="ascii">
1.013250e+05 1.013250e+05 1.013250e+05 1.013250e+05 1.013250e+05 1.013250e+05 1.013250e+05 1.013250e+05 1.013250e+05 1.013239e+05 1.012783e+05 9.950258e+04 9.949551e+04 9.952832e+04 9.956749e+04 9.961319e+04 9.966809e+04 9.973509e+04 9.981564e+04 9.991115e+04 1.000246e+05 1.001624e+05 1.003346e+05 1.005534e+05 1.008305e+05 1.011738e+05 1.015861e+05 1.015861e+05 1.013250e+05 1.013250e+05 1.013250e+05 1.013250e+05 1.013250e+05 1.013250e+05 1.013250e+05 1.013250e+05 1.013250e+05 1.013239e+05 1.012781e+05 9.954134e+04 9.949349e+04 9.950517e+04 9.954461e+04 9.960144e+04 9.966769e+04 9.974154e+04 9.982455e+04 9.991987e+04 1.000320e+05 1.001684e+05 1.003393e+05 1.005571e+05 1.008331e+05 1.011746e+05 1.015844e+05 1.015844e+05 1.013250e+05 1.013250e+05 1.013250e+05 1.013250e+05 1.013250e+05 1.013250e+05 1.013250e+05 1.013250e+05 1.013250e+05 1.013250e+05 1.013239e+05 1.012777e+05 9.950154e+04 9.953845e+04 9.957098e+04 9.958868e+04 9.961373e+04 9.965743e+04 9.972137e+04 9.980328e+04 9.990164e+04 1.000178e+05 1.001577e+05 1.003312e+05 1.005508e+05 1.008286e+05 1.011731e+05 1.015878e+05 1.015878e+05 1.013250e+05 1.013250e+05 1.013250e+05 1.013250e+05 1.013250e+05 1.013250e+05 1.013250e+05 1.013250e+05 1.013250e+05 1.013250e+05 1.013238e+05 1.012682e+05 9.935850e+04 9.934673e+04 9.944315e+04 9.954908e+04 9.963711e+04 9.970836e+04 9.977431e+04 9.984605e+04 9.993162e+04 1.000371e+05 1.001698e+05 1.003392e+05 1.005569e+05 1.008335e+05 1.011752e+05 1.015826e+05 1.015826e+05 1.013250e+05 1.013250e+05 1.013250e+05 1.013250e+05 1.013250e+05 1.013250e+05 1.013250e+05 1.013250e+05 1.013250e+05 1.013250e+05 1.013240e+05 1.012786e+05 1.000325e+05 9.966851e+04 9.947674e+04 9.941969e+04 9.946190e+04 9.955756e+04 9.967299e+04 9.979198e+04 9.991199e+04 1.000383e+05 1.001809e+05 1.003527e+05 1.005678e+05 1.008389e+05 1.011758e+05 1.015855e+05 1.015855e+05 1.013250e+05 1.013250e+05 1.013250e+05 1.013250e+05 1.013250e+05 1.013250e+05 1.013250e+05 1.013250e+05 1.013250e+05 1.013250e+05 1.013246e+05 1.013078e+05 1.009236e+05 1.006271e+05 1.003176e+05 1.000308e+05 9.981593e+04 9.969546e+04 9.966438e+04 9.970268e+04 9.978928e+04 9.991030e+04 1.000623e+05 1.002510e+05 1.004884e+05 1.007881e+05 1.011608e+05 1.016098e+05 1.016098e+05 1.013250e+05 1.013250e+05 1.013250e+05 1.013250e+05 1.013250e+05 1.013250e+05 1.013250e+05 1.013250e+05 1.013250e+05 1.013250e+05 1.013249e+05 1.013221e+05 1.012664e+05 1.011894e+05 1.010675e+05 1.009004e+05 1.007072e+05 1.005179e+05 1.003617e+05 1.002578e+05 1.002137e+05 1.002295e+05 1.003038e+05 1.004373e+05 1.006324e+05 1.008887e+05 1.011968e+05 1.015334e+05 1.015334e+05 1.013250e+05 1.013250e+05 1.013250e+05 1.013250e+05 1.013250e+05 1.013250e+05 1.013250e+05 1.013250e+05 1.013250e+05 1.013250e+05 1.013250e+05 1.013248e+05 1.013209e+05 1.013127e+05 1.012943e+05 1.012599e+05 1.012060e+05 1.011349e+05 1.010556e+05 1.009808e+05 1.009236e+05 1.008944e+05 1.009004e+05 1.009452e+05 1.010285e+05 1.011432e+05 1.012744e+05 1.014005e+05 1.014005e+05 1.013250e+05 1.013250e+05 1.013250e+05 1.013250e+05 1.013250e+05 1.013250e+05 1.013250e+05 1.013250e+05 1.013250e+05 1.013250e+05 1.013250e+05 1.013250e+05 1.013249e+05 1.013245e+05 1.013233e+05 1.013203e+05 1.013142e+05 1.013038e+05 1.012893e+05 1.012723e+05 1.012561e+05 1.012444e+05 1.012408e+05 1.012475e+05 1.012645e+05 1.012890e+05 1.013156e+05 1.013379e+05 1.013379e+05 1.013250e+05 1.013250e+05 1.013250e+05 1.013250e+05 1.013250e+05 1.013250e+05 1.013250e+05 1.013250e+05 1.013250e+05 1.013250e+05 1.013250e+05 1.013250e+05 1.013250e+05 1.013250e+05 1.013250e+05 1.013248e+05 1.013245e+05 1.013239e+05 1.013227e+05 1.013211e+05 1.013193e+05 1.013177e+05 1.013170e+05 1.013174e+05 1.013191e+05 1.013216e+05 1.013242e+05 1.013261e+05 1.013261e+05 1.013250e+05 1.013250e+05 1.013250e+05 1.013250e+05 1.013250e+05 1.013250e+05 1.013250e+05 1.013250e+05 1.013250e+05 1.013250e+05 1.013250e+05 1.013250e+05 1.013250e+05 1.013250e+05 1.013250e+05 1.013250e+05 1.013250e+05 1.013250e+05 1.013249e+05 1.013249e+05 1.013248e+05 1.013247e+05 1.013246e+05 1.013246e+05 1.013247e+05 1.013248e+05 1.013250e+05 1.013250e+05 1.013250e+05 1.013250e+05 1.013250e+05 1.013250e+05 1.013250e+05 1.013250e+05 1.013250e+05 1.013250e+05 1.013250e+05 1.013250e+05 1.013250e+05 1.013250e+05 1.013250e+05 1.013250e+05 1.013250e+05 1.013250e+05 1.013250e+05 1.013250e+05 1.013250e+05 1.013250e+05 1.013250e+05 1.013250e+05 1.013250e+05 1.013250e+05 1.013250e+05 1.013250e+05 1.013250e+05 1.013250e+05 1.013250e+05 1.013250e+05 1.013250e+05 1.013250e+05 1.013250e+05 1.013250e+05 1.013250e+05 1.013250e+05 1.013250e+05 1.013250e+05 1.013250e+05 1.013250e+05 1.013250e+05 1.013250e+05 1.013250e+05 1.013250e+05 1.013250e+05 1.013250e+05 1.013250e+05 1.013250e+05 1.013250e+05 1.013250e+05 1.013250e+05 1.013250e+05 1.013250e+05 1.013250e+05 1.013250e+05 1.013250e+05 1.013250e+05 1.013250e+05 1.013250e+05 1.013250e+05 1.013250e+05 1.013250e+05 1.013250e+05 1.013250e+05 1.013250e+05 1.013250e+05 1.013250e+05 1.013250e+05 1.013250e+05 1.013250e+05 1.013250e+05 1.013250e+05 1.013250e+05 1.013250e+05 1.013250e+05 1.013250e+05 1.013250e+05 1.013250e+05 1.013250e+05 1.013250e+05 1.013250e+05 1.013250e+05 1.013250e+05 1.013250e+05 1.013250e+05 1.013250e+05 1.013250e+05 1.013250e+05 1.013250e+05 1.013250e+05 1.013250e+05 1.013250e+05 1.013250e+05 1.013250e+05 1.013250e+05 1.013250e+05 1.013250e+05 1.013250e+05 1.013250e+05 1.013250e+05 1.013250e+05 1.013250e+05 1.013250e+05 1.013250e+05 1.013250e+05 1.013250e+05 1.013250e+05 1.013250e+05 1.013250e+05 1.013250e+05 1.013250e+05 1.013250e+05 1.013250e+05 1.013250e+05 1.013250e+05 1.013250e+05 1.013250e+05 1.013250e+05 1.013250e+05 1.013250e+05 1.013250e+05 1.013250e+05 1.013250e+05 1.013250e+05 1.013250e+05 1.013250e+05 1.013250e+05 1.013250e+05 1.013250e+05 1.013250e+05 1.013250e+05 1.013250e+05 1.013250e+05 1.013250e+05 1.013250e+05 1.013250e+05 1.013250e+05 1.013250e+05 1.013250e+05 1.013250e+05 1.013250e+05 1.013250e+05 1.013250e+05 1.013250e+05 1.013250e+05 1.013250e+05 1.013250e+05 1.013250e+05 1.013250e+05 1.013250e+05 1.013250e+05 1.013250e+05 1.013250e+05 1.013250e+05 1.013250e+05 1.013250e+05 1.013250e+05 1.013250e+05 1.013250e+05 1.013250e+05 1.013250e+05 1.013250e+05 1.013250e+05 1.013250e+05 1.013250e+05 1.013250e+05 1.013250e+05 1.013250e+05 1.013250e+05 1.013250e+05 1.013250e+05 1.013250e+05 1.013250e+05 1.013250e+05 1.013250e+05 1.013250e+05 1.013250e+05 1.013250e+05 1.013250e+05 1.013250e+05 1.013250e+05 1.013250e+05 1.013250e+05 1.013250e+05 1.013250e+05 1.013250e+05 1.013250e+05 1.013250e+05 1.013250e+05 1.013250e+05 1.013250e+05 1.013250e+05 1.013250e+05 1.013250e+05 1.013250e+05 1.013250e+05 1.013250e+05 1.013250e+05 1.013250e+05 1.013250e+05 1.013250e+05 1.013250e+05 1.013250e+05 1.013250e+05 1.013250e+05 1.013250e+05 1.013250e+05 1.013250e+05 1.013250e+05 1.013250e+05 1.013250e+05 1.013250e+05 1.013250e+05 1.013250e+05 1.013250e+05 1.013250e+05 1.013250e+05 1.013250e+05 1.013250e+05 1.013250e+05 1.013250e+05 1.013250e+05 1.013250e+05 1.013250e+05 1.013250e+05 1.013250e+05 1.013250e+05 1.013250e+05 1.013250e+05 1.013250e+05 1.013250e+05 1.013250e+05 1.013250e+05 1.013250e+05 1.013250e+05 1.013250e+05 1.013250e+05 1.013250e+05 1.013250e+05 1.013250e+05 1.013250e+05 1.013250e+05 1.013250e+05 1.013250e+05 1.013250e+05 1.013250e+05 1.013250e+05 1.013250e+05 1.013250e+05 1.013250e+05 1.013250e+05 1.013250e+05 1.013250e+05 1.013250e+05 1.013250e+05 1.013250e+05 1.013250e+05 1.013250e+05 1.013250e+05 1.013250e+05 1.013250e+05 1.013250e+05 1.013250e+05 1.013250e+05 1.013250e+05 1.013250e+05 1.013250e+05 1.013250e+05 1.013250e+05 1.013250e+05 1.013250e+05 1.013250e+05 1.013250e+05 1.013250e+05 1.013250e+05 1.013250e+05 1.013250e+05 1.013250e+05 1.013250e+05 1.013250e+05 1.013250e+05 1.013250e+05 1.013250e+05 1.013250e+05 1.013250e+05 1.013250e+05 1.013250e+05 1.013250e+05 1.013250e+05 1.013250e+05 1.013250e+05 1.013250e+05 1.013250e+05 1.013250e+05 1.013250e+05 1.013250e+05 1.013250e+05 1.013250e+05 1.013250e+05 1.013250e+05 1.013250e+05 1.013250e+05 1.013250e+05 1.013250e+05 1.013250e+05 1.013250e+05 1.013250e+05 1.013250e+05 1.013250e+05 1.013250e+05 1.013250e+05 1.013250e+05 1.013250e+05 1.013250e+05 1.013250e+05 1.013250e+05 1.013250e+05 1.013250e+05 1.013250e+05 1.013250e+05 1.013250e+05 1.013250e+05 1.013250e+05 1.013250e+05 1.013250e+05 1.013250e+05 1.013250e+05 1.013250e+05 1.013250e+05 1.013250e+05 1.013250e+05 1.013250e+05 1.013250e+05 1.013250e+05 1.013250e+05 1.013250e+05 1.013250e+05 1.013250e+05 1.013250e+05 1.013250e+05 1.013250e+05 1.013250e+05 1.013250e+05 1.013250e+05 1.013250e+05 1.013250e+05 1.013250e+05 1.013250e+05 1.013250e+05 1.013250e+05 1.013250e+05 1.013250e+05 1.013250e+05 1.013250e+05 1.013250e+05 1.013250e+05 1.013250e+05 1.013250e+05 1.013250e+05 1.013250e+05 1.013250e+05 1.013250e+05 1.013250e+05 1.013250e+05 1.013250e+05 1.013250e+05 1.013250e+05 1.013250e+05 1.013250e+05 1.013250e+05 1.013250e+05 1.013250e+05 1.013250e+05 1.013250e+05 1.013250e+05 1.013250e+05 1.013250e+05 1.013250e+05 1.013250e+05 1.013250e+05 1.013250e+05 1.013250e+05 1.013250e+05 1.013250e+05 1.013250e+05 1.013250e+05 1.013250e+05 1.013250e+05 1.013250e+05 1.013250e+05 1.013250e+05 1.013250e+05 1.013250e+05 1.013250e+05 1.013250e+05 1.013250e+05 1.013250e+05 1.013250e+05 1.013250e+05 1.013250e+05 1.013250e+05 1.013250e+05 1.013250e+05 1.013250e+05 1.013250e+05 1.013250e+05 1.013250e+05 1.013250e+05 1.013250e+05 1.013250e+05 1.013250e+05 1.013250e+05 1.013250e+05 1.013250e+05 1.013250e+05 1.013250e+05 1.013250e+05 1.013250e+05 1.013250e+05 1.013250e+05 1.013250e+05 1.013250e+05 1.013250e+05 1.013250e+05 1.013250e+05 1.013250e+05 1.013250e+05 1.013250e+05 1.013250e+05 1.013250e+05 1.013250e+05 1.013250e+05 1.013250e+05 1.013250e+05 1.013250e+05 1.013250e+05 1.013250e+05 1.013250e+05 1.013250e+05 1.013250e+05 1.013250e+05 1.013250e+05 1.013250e+05 1.013250e+05 1.013250e+05 1.013250e+05 1.013250e+05 1.013250e+05 1.013250e+05 1.013250e+05 1.013250e+05 1.013250e+05 1.013250e+05 1.013250e+05 1.013250e+05 1.013250e+05 1.013250e+05 1.013250e+05 1.013250e+05 1.013250e+05 1.013250e+05 1.013250e+05 1.013250e+05 1.013250e+05 1.013250e+05 1.013250e+05 1.013250e+05 1.013250e+05 1.013250e+05 1.013250e+05 1.013250e+05 1.013250e+05 1.013250e+05 1.013250e+05 1.013250e+05 1.013250e+05 1.013250e+05 1.013250e+05 1.013250e+05 1.013250e+05 1.013250e+05 1.013250e+05 1.013250e+05 1.013250e+05 1.013250e+05 1.013250e+05 1.013250e+05 1.013250e+05 1.013250e+05 1.013250e+05 1.013250e+05 1.013250e+05 1.013250e+05 1.013250e+05 1.013250e+05 1.013250e+05 1.013250e+05 1.013250e+05 1.013250e+05 1.013250e+05 1.013250e+05 1.013250e+05 1.013250e+05 1.013250e+05 1.013250e+05 1.013250e+05 1.013250e+05 1.013250e+05 1.013250e+05 1.013250e+05 1.013250e+05 1.013250e+05 1.013250e+05 1.013250e+05 1.013250e+05 1.013250e+05 1.013250e+05 1.013250e+05 1.013250e+05 1.013250e+05 1.013250e+05 1.013250e+05 1.013250e+05 1.013250e+05 1.013250e+05 1.013250e+05 1.013250e+05 1.013250e+05 1.013250e+05 1.013250e+05 1.013250e+05 1.013250e+05 1.013250e+05 1.013250e+05 1.013250e+05 1.013250e+05 1.013250e+05 1.013250e+05 1.013250e+05 1.013250e+05 1.013250e+05 1.013250e+05 1.013250e+05 1.013250e+05 1.013250e+05 1.013250e+05 1.013250e+05 1.013250e+05 1.013250e+05 1.013250e+05 1.013250e+05 1.013250e+05 1.013250e+05 1.013250e+05 1.013250e+05 1.013250e+05 1.013250e+05 1.013250e+05 1.013250e+05 1.013250e+05 1.013250e+05 1.013250e+05 1.013250e+05 1.013250e+05 1.013250e+05 1.013250e+05 1.013250e+05 1.013250e+05 1.013250e+05 1.013250e+05 1.013250e+05 1.013250e+05 1.013250e+05 1.013250e+05 1.013250e+05 1.013250e+05 1.013250e+05 1.013250e+05 1.013250e+05 1.013250e+05 1.013250e+05 1.013250e+05 1.013250e+05 1.013250e+05 1.013250e+05 1.013250e+05 1.013250e+05 1.013250e+05 1.013250e+05 1.013250e+05 1.013250e+05 1.013250e+05 1.013250e+05 1.013250e+05 1.013250e+05 1.013239e+05 1.012787e+05 9.951696e+04 9.949603e+04 9.952087e+04 9.955965e+04 9.960901e+04 9.966781e+04 9.973719e+04 9.981861e+04 9.991406e+04 1.000271e+05 1.001644e+05 1.003362e+05 1.005546e+05 1.008314e+05 1.011740e+05 1.015855e+05 1.015855e+05 1.013250e+05 1.013250e+05 1.013250e+05 1.013250e+05 1.013250e+05 1.013250e+05 1.013250e+05 1.013250e+05 1.013250e+05 1.013250e+05 1.013250e+05 1.013250e+05 1.013250e+05 1.013250e+05 1.013250e+05 1.013250e+05 1.013250e+05 1.013250e+05 1.013250e+05 1.013250e+05 1.013250e+05 1.013250e+05 1.013250e+05 1.013250e+05 1.013250e+05 1.013250e+05 1.013250e+05 1.013250e+05 1.013250e+05 1.013250e+05 1.013250e+05 1.013250e+05 1.013250e+05 1.013250e+05 1.013250e+05 1.013250e+05 1.013250e+05 1.013250e+05 1.013239e+05 1.012787e+05 9.951696e+04 9.949603e+04 9.952087e+04 9.955965e+04 9.960901e+04 9.966781e+04 9.973719e+04 9.981861e+04 9.991406e+04 1.000271e+05 1.001644e+05 1.003362e+05 1.005546e+05 1.008314e+05 1.011740e+05 1.015855e+05 1.015855e+05 1.013250e+05 1.013250e+05 1.013250e+05 1.013250e+05 1.013250e+05 1.013250e+05 1.013250e+05 1.013250e+05 1.013250e+05 1.013239e+05 1.012783e+05 9.950258e+04 9.949551e+04 9.952832e+04 9.956749e+04 9.961319e+04 9.966809e+04 9.973509e+04 9.981564e+04 9.991115e+04 1.000246e+05 1.001624e+05 1.003346e+05 1.005534e+05 1.008305e+05 1.011738e+05 1.015861e+05 1.015861e+05 1.013250e+05 1.013250e+05 1.013250e+05 1.013250e+05 1.013250e+05 1.013250e+05 1.013250e+05 1.013250e+05 1.013250e+05 1.013239e+05 1.012781e+05 9.954134e+04 9.949349e+04 9.950517e+04 9.954461e+04 9.960144e+04 9.966769e+04 9.974154e+04 9.982455e+04 9.991987e+04 1.000320e+05 1.001684e+05 1.003393e+05 1.005571e+05 1.008331e+05 1.011746e+05 1.015844e+05 1.015844e+05 1.013250e+05 1.013250e+05 1.013250e+05 1.013250e+05 1.013250e+05 1.013250e+05 1.013250e+05 1.013250e+05 1.013250e+05 1.013250e+05 1.013239e+05 1.012777e+05 9.950154e+04 9.953845e+04 9.957098e+04 9.958868e+04 9.961373e+04 9.965743e+04 9.972137e+04 9.980328e+04 9.990164e+04 1.000178e+05 1.001577e+05 1.003312e+05 1.005508e+05 1.008286e+05 1.011731e+05 1.015878e+05 1.015878e+05 1.013250e+05 1.013250e+05 1.013250e+05 1.013250e+05 1.013250e+05 1.013250e+05 1.013250e+05 1.013250e+05 1.013250e+05 1.013250e+05 1.013238e+05 1.012682e+05 9.935850e+04 9.934673e+04 9.944315e+04 9.954908e+04 9.963711e+04 9.970836e+04 9.977431e+04 9.984605e+04 9.993162e+04 1.000371e+05 1.001698e+05 1.003392e+05 1.005569e+05 1.008335e+05 1.011752e+05 1.015826e+05 1.015826e+05 1.013250e+05 1.013250e+05 1.013250e+05 1.013250e+05 1.013250e+05 1.013250e+05 1.013250e+05 1.013250e+05 1.013250e+05 1.013250e+05 1.013240e+05 1.012786e+05 1.000325e+05 9.966851e+04 9.947674e+04 9.941969e+04 9.946190e+04 9.955756e+04 9.967299e+04 9.979198e+04 9.991199e+04 1.000383e+05 1.001809e+05 1.003527e+05 1.005678e+05 1.008389e+05 1.011758e+05 1.015855e+05 1.015855e+05 1.013250e+05 1.013250e+05 1.013250e+05 1.013250e+05 1.013250e+05 1.013250e+05 1.013250e+05 1.013250e+05 1.013250e+05 1.013250e+05 1.013246e+05 1.013078e+05 1.009236e+05 1.006271e+05 1.003176e+05 1.000308e+05 9.981593e+04 9.969546e+04 9.966438e+04 9.970268e+04 9.978928e+04 9.991030e+04 1.000623e+05 1.002510e+05 1.004884e+05 1.007881e+05 1.011608e+05 1.016098e+05 1.016098e+05 1.013250e+05 1.013250e+05 1.013250e+05 1.013250e+05 1.013250e+05 1.013250e+05 1.013250e+05 1.013250e+05 1.013250e+05 1.013250e+05 1.013249e+05 1.013221e+05 1.012664e+05 1.011894e+05 1.010675e+05 1.009004e+05 1.007072e+05 1.005179e+05 1.003617e+05 1.002578e+05 1.002137e+05 1.002295e+05 1.003038e+05 1.004373e+05 1.006324e+05 1.008887e+05 1.011968e+05 1.015334e+05 1.015334e+05 1.013250e+05 1.013250e+05 1.013250e+05 1.013250e+05 1.013250e+05 1.013250e+05 1.013250e+05 1.013250e+05 1.013250e+05 1.013250e+05 1.013250e+05 1.013248e+05 1.013209e+05 1.013127e+05 1.012943e+05 1.012599e+05 1.012060e+05 1.011349e+05 1.010556e+05 1.009808e+05 1.009236e+05 1.008944e+05 1.009004e+05 1.009452e+05 1.010285e+05 1.011432e+05 1.012744e+05 1.014005e+05 1.014005e+05 1.013250e+05 1.013250e+05 1.013250e+05 1.013250e+05 1.013250e+05 1.013250e+05 1.013250e+05 1.013250e+05 1.013250e+05 1.013250e+05 1.013250e+05 1.013250e+05 1.013249e+05 1.013245e+05 1.013233e+05 1.013203e+05 1.013142e+05 1.013038e+05 1.012893e+05 1.012723e+05 1.012561e+05 1.012444e+05 1.012408e+05 1.012475e+05 1.012645e+05 1.012890e+05 1.013156e+05 1.013379e+05 1.013379e+05 1.013250e+05 1.013250e+05 1.013250e+05 1.013250e+05 1.013250e+05 1.013250e+05 1.013250e+05 1.013250e+05 1.013250e+05 1.013250e+05 1.013250e+05 1.013250e+05 1.013250e+05 1.013250e+05 1.013250e+05 1.013248e+05 1.013245e+05 1.013239e+05 1.013227e+05 1.013211e+05 1.013193e+05 1.013177e+05 1.013170e+05 1.013174e+05 1.013191e+05 1.013216e+05 1.013242e+05 1.013261e+05 1.013261e+05 1.013250e+05 1.013250e+05 1.013250e+05 1.013250e+05 1.013250e+05 1.013250e+05 1.013250e+05 1.013250e+05 1.013250e+05 1.013250e+05 1.013250e+05 1.013250e+05 1.013250e+05 1.013250e+05 1.013250e+05 1.013250e+05 1.013250e+05 1.013250e+05 1.013249e+05 1.013249e+05 1.013248e+05 1.013247e+05 1.013246e+05 1.013246e+05 1.013247e+05 1.013248e+05 1.013250e+05 1.013250e+05 1.013250e+05 1.013250e+05 1.013250e+05 1.013250e+05 1.013250e+05 1.013250e+05 1.013250e+05 1.013250e+05 1.013250e+05 1.013250e+05 1.013250e+05 1.013250e+05 1.013250e+05 1.013250e+05 1.013250e+05 1.013250e+05 1.013250e+05 1.013250e+05 1.013250e+05 1.013250e+05 1.013250e+05 1.013250e+05 1.013250e+05 1.013250e+05 1.013250e+05 1.013250e+05 1.013250e+05 1.013250e+05 1.013250e+05 1.013250e+05 1.013250e+05 1.013250e+05 1.013250e+05 1.013250e+05 1.013250e+05 1.013250e+05 1.013250e+05 1.013250e+05 1.013250e+05 1.013250e+05 1.013250e+05 1.013250e+05 1.013250e+05 1.013250e+05 1.013250e+05 1.013250e+05 1.013250e+05 1.013250e+05 1.013250e+05 1.013250e+05 1.013250e+05 1.013250e+05 1.013250e+05 1.013250e+05 1.013250e+05 1.013250e+05 1.013250e+05 1.013250e+05 1.013250e+05 1.013250e+05 1.013250e+05 1.013250e+05 1.013250e+05 1.013250e+05 1.013250e+05 1.013250e+05 1.013250e+05 1.013250e+05 1.013250e+05 1.013250e+05 1.013250e+05 1.013250e+05 1.013250e+05 1.013250e+05 1.013250e+05 1.013250e+05 1.013250e+05 1.013250e+05 1.013250e+05 1.013250e+05 1.013250e+05 1.013250e+05 1.013250e+05 1.013250e+05 1.013250e+05 1.013250e+05 1.013250e+05 1.013250e+05 1.013250e+05 1.013250e+05 1.013250e+05 1.013250e+05 1.013250e+05 1.013250e+05 1.013250e+05 1.013250e+05 1.013250e+05 1.013250e+05 1.013250e+05 1.013250e+05 1.013250e+05 1.013250e+05 1.013250e+05 1.013250e+05 1.013250e+05 1.013250e+05 1.013250e+05 1.013250e+05 1.013250e+05 1.013250e+05 1.013250e+05 1.013250e+05 1.013250e+05 1.013250e+05 1.013250e+05 1.013250e+05 1.013250e+05 1.013250e+05 1.013250e+05 1.013250e+05 1.013250e+05 1.013250e+05 1.013250e+05 1.013250e+05 1.013250e+05 1.013250e+05 1.013250e+05 1.013250e+05 1.013250e+05 1.013250e+05 1.013250e+05 1.013250e+05 1.013250e+05 1.013250e+05 1.013250e+05 1.013250e+05 1.013250e+05 1.013250e+05 1.013250e+05 1.013250e+05 1.013250e+05 1.013250e+05 1.013250e+05 1.013250e+05 1.013250e+05 1.013250e+05 1.013250e+05 1.013250e+05 1.013250e+05 1.013250e+05 1.013250e+05 1.013250e+05 1.013250e+05 1.013250e+05 1.013250e+05 1.013250e+05 1.013250e+05 1.013250e+05 1.013250e+05 1.013250e+05 1.013250e+05 1.013250e+05 1.013250e+05 1.013250e+05 1.013250e+05 1.013250e+05 1.013250e+05 1.013250e+05 1.013250e+05 1.013250e+05 1.013250e+05 1.013250e+05 1.013250e+05 1.013250e+05 1.013250e+05 1.013250e+05 1.013250e+05 1.013250e+05 1.013250e+05 1.013250e+05 1.013250e+05 1.013250e+05 1.013250e+05 1.013250e+05 1.013250e+05 1.013250e+05 1.013250e+05 1.013250e+05 1.013250e+05 1.013250e+05 1.013250e+05 1.013250e+05 1.013250e+05 1.013250e+05 1.013250e+05 1.013250e+05 1.013250e+05 1.013250e+05 1.013250e+05 1.013250e+05 1.013250e+05 1.013250e+05 1.013250e+05 1.013250e+05 1.013250e+05 1.013250e+05 1.013250e+05 1.013250e+05 1.013250e+05 1.013250e+05 1.013250e+05 1.013250e+05 1.013250e+05 1.013250e+05 1.013250e+05 1.013250e+05 1.013250e+05 1.013250e+05 1.013250e+05 1.013250e+05 1.013250e+05 1.013250e+05 1.013250e+05 1.013250e+05 1.013250e+05 1.013250e+05 1.013250e+05 1.013250e+05 1.013250e+05 1.013250e+05 1.013250e+05 1.013250e+05 1.013250e+05 1.013250e+05 1.013250e+05 1.013250e+05 1.013250e+05 1.013250e+05 1.013250e+05 1.013250e+05 1.013250e+05 1.013250e+05 1.013250e+05 1.013250e+05 1.013250e+05 1.013250e+05 1.013250e+05 1.013250e+05 1.013250e+05 1.013250e+05 1.013250e+05 1.013250e+05 1.013250e+05 1.013250e+05 1.013250e+05 1.013250e+05 1.013250e+05 1.013250e+05 1.013250e+05 1.013250e+05 1.013250e+05 1.013250e+05 1.013250e+05 1.013250e+05 1.013250e+05 1.013250e+05 1.013250e+05 1.013250e+05 1.013250e+05 1.013250e+05 1.013250e+05 1.013250e+05 1.013250e+05 1.013250e+05 1.013250e+05 1.013250e+05 1.013250e+05 1.013250e+05 1.013250e+05 1.013250e+05 1.013250e+05 1.013250e+05 1.013250e+05 1.013250e+05 1.013250e+05 1.013250e+05 1.013250e+05 1.013250e+05 1.013250e+05 1.013250e+05 1.013250e+05 1.013250e+05 1.013250e+05 1.013250e+05 1.013250e+05 1.013250e+05 1.013250e+05 1.013250e+05 1.013250e+05 1.013250e+05 1.013250e+05 1.013250e+05 1.013250e+05 1.013250e+05 1.013250e+05 1.013250e+05 1.013250e+05 1.013250e+05 1.013250e+05 1.013250e+05 1.013250e+05 1.013250e+05 1.013250e+05 1.013250e+05 1.013250e+05 1.013250e+05 1.013250e+05 1.013250e+05 1.013250e+05 1.013250e+05 1.013250e+05 1.013250e+05 1.013250e+05 1.013250e+05 1.013250e+05 1.013250e+05 1.013250e+05 1.013250e+05 1.013250e+05 1.013250e+05 1.013250e+05 1.013250e+05 1.013250e+05 1.013250e+05 1.013250e+05 1.013250e+05 1.013250e+05 1.013250e+05 1.013250e+05 1.013250e+05 1.013250e+05 1.013250e+05 1.013250e+05 1.013250e+05 1.013250e+05 1.013250e+05 1.013250e+05 1.013250e+05 1.013250e+05 1.013250e+05 1.013250e+05 1.013250e+05 1.013250e+05 1.013250e+05 1.013250e+05 1.013250e+05 1.013250e+05 1.013250e+05 1.013250e+05 1.013250e+05 1.013250e+05 1.013250e+05 1.013250e+05 1.013250e+05 1.013250e+05 1.013250e+05 1.013250e+05 1.013250e+05 1.013250e+05 1.013250e+05 1.013250e+05 1.013250e+05 1.013250e+05 1.013250e+05 1.013250e+05 1.013250e+05 1.013250e+05 1.013250e+05 1.013250e+05 1.013250e+05 1.013250e+05 1.013250e+05 1.013250e+05 1.013250e+05 1.013250e+05 1.013250e+05 1.013250e+05 1.013250e+05 1.013250e+05 1.013250e+05 1.013250e+05 1.013250e+05 1.013250e+05 1.013250e+05 1.013250e+05 1.013250e+05 1.013250e+05 1.013250e+05 1.013250e+05 1.013250e+05 1.013250e+05 1.013250e+05 1.013250e+05 1.013250e+05 1.013250e+05 1.013250e+05 1.013250e+05 1.013250e+05 1.013250e+05 1.013250e+05 1.013250e+05 1.013250e+05 1.013250e+05 1.013250e+05 1.013250e+05 1.013250e+05 1.013250e+05 1.013250e+05 1.013250e+05 1.013250e+05 1.013250e+05 1.013250e+05 1.013250e+05 1.013250e+05 1.013250e+05 1.013250e+05 1.013250e+05 1.013250e+05 1.013250e+05 1.013250e+05 1.013250e+05 1.013250e+05 1.013250e+05 1.013250e+05 1.013250e+05 1.013250e+05 1.013250e+05 1.013250e+05 1.013250e+05 1.013250e+05 1.013250e+05 1.013250e+05 1.013250e+05 1.013250e+05 1.013250e+05 1.013250e+05 1.013250e+05 1.013250e+05 1.013250e+05 1.013250e+05 1.013250e+05 1.013250e+05 1.013250e+05 1.013250e+05 1.013250e+05 1.013250e+05 1.013250e+05 1.013250e+05 1.013250e+05 1.013250e+05 1.013250e+05 1.013250e+05 1.013250e+05 1.013250e+05 1.013250e+05 1.013250e+05 1.013250e+05 1.013250e+05 1.013250e+05 1.013250e+05 1.013250e+05 1.013250e+05 1.013250e+05 1.013250e+05 1.013250e+05 1.013250e+05 1.013250e+05 1.013250e+05 1.013250e+05 1.013250e+05 1.013250e+05 1.013250e+05 1.013250e+05 1.013250e+05 1.013250e+05 1.013250e+05 1.013250e+05 1.013250e+05 1.013250e+05 1.013250e+05 1.013250e+05 1.013250e+05 1.013250e+05 1.013250e+05 1.013250e+05 1.013250e+05 1.013250e+05 1.013250e+05 1.013250e+05 1.013250e+05 1.013250e+05 1.013250e+05 1.013250e+05 1.013250e+05 1.013250e+05 1.013250e+05 1.013250e+05 1.013250e+05 1.013250e+05 1.013250e+05 1.013250e+05 1.013250e+05 1.013250e+05 1.013250e+05 1.013250e+05 1.013250e+05 1.013250e+05 1.013250e+05 1.013250e+05 1.013250e+05 1.013250e+05 1.013250e+05 1.013250e+05 1.013250e+05 1.013250e+05 1.013250e+05 1.013250e+05 1.013250e+05 1.013250e+05 1.013250e+05 1.013250e+05 1.013250e+05 1.013250e+05 1.013250e+05 1.013250e+05 1.013250e+05 1.013250e+05 1.013250e+05 1.013250e+05 1.013250e+05 1.013250e+05 1.013250e+05 1.013250e+05 1.013250e+05 1.013250e+05 1.013250e+05 1.013250e+05 1.013250e+05 1.013250e+05 1.013250e+05 1.013250e+05 1.013250e+05 1.013250e+05 1.013250e+05 1.013250e+05 1.013250e+05 1.013250e+05 1.013250e+05 1.013250e+05 1.013250e+05 1.013250e+05 1.013250e+05 1.013250e+05 1.013250e+05 1.013250e+05 1.013250e+05 1.013250e+05 1.013250e+05 1.013250e+05 1.013250e+05 1.013250e+05 1.013250e+05 1.013250e+05 1.013250e+05 1.013250e+05 1.013250e+05 1.013250e+05 1.013250e+05 1.013250e+05 1.013250e+05 1.013250e+05 1.013250e+05 1.013250e+05 1.013250e+05 1.013250e+05 1.013250e+05 1.013250e+05 1.013250e+05 1.013250e+05 1.013250e+05 1.013250e+05 1.013250e+05 1.013250e+05 1.013250e+05 1.013250e+05 1.013250e+05 1.013250e+05 1.013250e+05 1.013250e+05 1.013250e+05 1.013250e+05 1.013250e+05 1.013250e+05 1.013250e+05 1.013250e+05 1.013250e+05 1.013250e+05 1.013250e+05 1.013250e+05 1.013250e+05 1.013250e+05 1.013250e+05 1.013250e+05 1.013250e+05 1.013250e+05 
     </DataArray>
     <DataArray type="Float64" Name="pointVel" NumberOfComponents="3" format="ascii">