<?xml version="1.0"?>
 <VTKFile type="UnstructuredGrid" version="1.0" byte_order="LittleEndian" header_type="UInt64">
  <UnstructuredGrid>
    <FieldData>
     <DataArray type="Float64" Name="TimeValue" NumberOfTuples="1" format="ascii">
0.00036
     </DataArray>
    </FieldData>
   <Piece NumberOfPoints="3548" NumberOfCells="3379">
    <PointData>
     <DataArray type="Float64" Name="pointP" format="ascii">
-1.124829e+04 -1.261383e+04 -1.424201e+04 -1.628706e+04 -1.841637e+04 -1.885690e+04 -1.952871e+04 -2.161208e+04 -2.411258e+04 -2.406405e+04 -2.125728e+04 -1.671203e+04 -1.396485e+04 -1.897941e+04 -1.911907e+04 -2.337928e+04 -2.061117e+04 -1.259256e+04 -1.061939e+04 -1.445958e+04 -1.476590e+04 -6.891452e+03 -8.369303e+03 -1.409372e+04 -9.378399e+03 -2.385730e+03 1.172393e+03 -7.412384e+03 -1.425931e+04 -5.016456e+02 -2.368025e+01 6.862400e+02 3.489230e+01 3.324927e+01 -3.460088e+03 -6.603255e+03 -2.060539e+02 -4.590258e+03 -4.684122e+03 2.399880e+04 -1.164192e+02 -5.990919e+03 -3.456009e+03 -8.010333e+03 1.492376e+05 6.192706e+04 -3.121929e+05 -7.605310e+03 3.814995e+03 -1.949459e+04 3.352305e+03 -8.431753e+03 -9.945118e+03 -7.544294e+03 -7.459561e+03 -9.864691e+03 -4.029378e+04 3.825024e+02 6.847777e+03 -2.826441e+04 1.512958e+05 1.328521e+03 1.314768e+03 -2.051409e+04 -1.207296e+04 2.306890e+02 -9.526431e+03 -7.442228e+03 -7.402199e+03 3.856567e+04 1.486926e+04 1.172166e+04 2.533463e+03 -4.787470e+03 -1.906011e+03 -2.063108e+03 1.094699e+05 -1.412412e+05 -7.611136e+05 -4.622743e+05 -2.587481e+05 -2.587481e+05 -2.712110e+05 -2.326611e+05 -2.097751e+05 -2.075561e+05 -2.075561e+05 -2.069301e+05 -1.903404e+05 -1.824298e+05 -1.788780e+05 -1.786562e+05 -1.774903e+05 -1.752530e+05 -1.701662e+05 -1.588585e+05 -1.544334e+05 -1.504454e+05 -1.427552e+05 -1.398891e+05 -1.371096e+05 -1.317588e+05 -1.317588e+05 -1.272117e+05 -1.201859e+05 -1.184320e+05 -1.143951e+05 -1.117763e+05 -1.080875e+05 -1.025793e+05 -9.719916e+04 -9.574930e+04 -9.356251e+04 -8.877500e+04 -8.679482e+04 -7.988214e+04 -7.834776e+04 -7.566083e+04 -7.266546e+04 -7.112538e+04 -6.523601e+04 -6.420421e+04 -6.000025e+04 -5.713524e+04 -5.510838e+04 -5.053621e+04 -4.954631e+04 -4.424116e+04 -4.424116e+04 -4.156983e+04 -3.754036e+04 -3.238309e+04 -3.238309e+04 -2.829207e+04 -2.460242e+04 -2.460242e+04 -2.122966e+04 -1.800836e+04 -1.599361e+04 -1.218240e+04 -1.218240e+04 -7.734896e+03 -7.734896e+03 -5.157212e+03 -2.836426e+03 3.466653e+02 2.374068e+03 4.084205e+03 8.253965e+03 8.253965e+03 1.123070e+04 1.329582e+04 1.526605e+04 1.830385e+04 1.830385e+04 -3.236667e+03 -3.236667e+03 -3.236667e+03 1.372830e+02 6.218120e+04 6.218120e+04 6.218120e+04 3.945345e+04 3.945345e+04 3.945345e+04 4.375676e+04 -2.603026e+04 -2.603026e+04 -2.603026e+04 -4.018476e+04 -8.394592e+04 -8.394592e+04 -8.394592e+04 -9.330131e+04 -2.262135e+05 -2.262135e+05 -2.262135e+05 -2.211837e+05 -2.139175e+05 -1.714802e+05 -1.714802e+05 -1.714802e+05 -1.687104e+05 8.863197e+01 8.863197e+01 8.863197e+01 -7.062775e+04 -7.062775e+04 -7.062775e+04 -6.677052e+04 -6.820411e+04 -3.105862e+05 -3.105862e+05 -3.105862e+05 -4.767568e+05 -2.530991e+04 -2.530991e+04 -2.530991e+04 -1.785009e+04 -1.785009e+04 -7.592735e+04 -7.592735e+04 -7.592735e+04 -8.382685e+04 -1.243896e+05 -4.825475e+04 -4.825475e+04 -4.825475e+04 -1.374296e+05 -2.354367e+05 -1.364884e+05 -1.364884e+05 -1.364884e+05 -1.504745e+05 -2.256136e+05 -2.256136e+05 -2.256136e+05 -1.490646e+04 -1.490646e+04 -3.317736e+04 -3.317736e+04 -1.206733e+05 -1.206733e+05 -1.206733e+05 -3.050184e+04 -1.857314e+05 -1.857314e+05 -1.857314e+05 -4.789321e+04 -5.018082e+05 -5.018082e+05 -1.337248e+06 -1.337248e+06 -4.197656e+05 -4.197656e+05 -4.197656e+05 -3.303773e+05 -3.303773e+05 -1.216341e+06 -1.216341e+06 -1.216341e+06 -1.016660e+06 -1.016660e+06 -1.334060e+04 -2.791593e+05 -2.791593e+05 -2.791593e+05 -2.855844e+05 -5.454125e+04 -5.454125e+04 -5.454125e+04 -5.797906e+04 -5.797906e+04 -1.018347e+05 -1.018347e+05 -1.018347e+05 -8.900024e+04 -8.900024e+04 -1.409455e+05 -1.409455e+05 -1.409455e+05 -1.443300e+05 -1.443300e+05 -1.677029e+05 -1.677029e+05 -1.677029e+05 -1.592757e+05 -1.592757e+05 -1.768036e+04 -1.768036e+04 -1.768036e+04 -1.606774e+04 -2.974456e+04 -2.974456e+04 -2.974456e+04 -3.241227e+04 -1.099869e+05 -1.099869e+05 -1.099869e+05 -1.188758e+05 -1.188758e+05 -3.621318e+04 -3.621318e+04 -3.621318e+04 -2.501983e+04 -2.501983e+04 -2.501983e+04 -2.099785e+04 -2.099785e+04 3.298057e+04 3.298057e+04 3.298057e+04 2.524075e+04 2.524075e+04 -4.748108e+04 -4.748108e+04 -4.748108e+04 -3.406742e+04 -1.114380e+05 -1.114380e+05 -1.855466e+05 -1.855466e+05 -1.855466e+05 -5.424977e+04 -5.424977e+04 -4.279026e+04 -4.279026e+04 -3.437745e+04 -3.437745e+04 -3.437745e+04 -3.488905e+04 -4.390988e+05 -4.390988e+05 -4.390988e+05 -3.078748e+05 -3.282576e+04 -3.282576e+04 -3.963465e+05 -3.963465e+05 -3.963465e+05 -9.601158e+04 -9.601158e+04 -9.601158e+04 -1.129318e+05 -1.129318e+05 -1.041966e+06 -1.041966e+06 -1.041966e+06 -1.462087e+06 -1.462087e+06 -1.955746e+05 -1.955746e+05 -1.352201e+05 -1.806078e+05 -1.806078e+05 -1.806078e+05 -2.892941e+04 -2.892941e+04 -1.425931e+04 -1.152222e+05 -1.152222e+05 -1.152222e+05 -8.043709e+04 -7.806523e+04 -3.009930e+04 4.459163e+03 4.459163e+03 4.459163e+03 -1.958495e+05 -1.958495e+05 -1.958495e+05 -1.508218e+05 -1.508218e+05 -1.508218e+05 -5.968379e+05 -5.968379e+05 -5.968379e+05 -3.795767e+05 -3.795767e+05 -2.096759e+05 -2.096759e+05 -2.096759e+05 -2.112996e+05 -2.112996e+05 -2.011747e+05 -2.011747e+05 -1.908033e+05 -1.908033e+05 -2.102169e+05 -2.102169e+05 -2.033872e+05 -8.250462e+03 -8.250462e+03 2.296565e+04 2.296565e+04 4.764740e+04 4.764740e+04 8.013431e+04 7.393746e+04 8.013431e+04 8.013431e+04 -7.553233e+04 -9.218285e+04 -9.218285e+04 -1.873627e+05 -1.873627e+05 -1.873627e+05 -1.954912e+05 -1.954912e+05 -1.954912e+05 -3.936854e+04 -9.314120e+04 -9.314120e+04 -6.270743e+04 -6.270743e+04 -7.624588e+04 -4.015790e+04 -2.670853e+04 1.328521e+03 -2.191585e+05 -2.191585e+05 -9.349982e+04 -9.349982e+04 -3.146902e+04 -2.368025e+01 -1.164350e+05 -1.164350e+05 -1.873180e+05 -1.873180e+05 -1.873180e+05 -5.812587e+04 -3.076481e+05 -1.841637e+04 -2.632048e+04 -2.632048e+04 -3.460088e+03 -9.005020e+04 -9.005020e+04 -1.334060e+04 -5.364911e+04 -5.364911e+04 -2.545853e+04 -3.715397e+04 -3.715397e+04 -3.715397e+04 -5.069764e+04 -1.110608e+05 -1.110608e+05 -4.631684e+04 -5.006159e+04 -5.006159e+04 -5.006159e+04 -3.063013e+04 -3.063013e+04 -4.646074e+04 -2.927965e+04 -2.927965e+04 -2.584480e+04 -2.161208e+04 -2.430994e+04 -4.903913e+04 -4.903913e+04 -2.029965e+05 -1.268224e+05 -2.032233e+05 -2.032233e+05 -1.866347e+05 -4.029378e+04 -1.691160e+05 -1.691160e+05 -4.481595e+04 -1.885690e+04 -3.101493e+04 -2.340531e+05 -7.111471e+04 -6.239580e+04 -4.242118e+04 -4.242118e+04 -1.393694e+05 -1.571776e+05 -3.709100e+05 -1.306438e+05 -1.306438e+05 -1.306438e+05 -1.151104e+05 -1.151104e+05 -2.613970e+04 -2.613970e+04 -2.224967e+04 -2.702684e+04 -4.432604e+04 -1.355456e+06 -2.571103e+05 -2.571103e+05 -2.033603e+04 -1.157268e+05 -1.991354e+05 -6.950546e+03 -3.140372e+04 -1.442089e+05 -8.274339e+04 -2.673927e+05 -3.271117e+05 -3.271117e+05 -1.330576e+05 -1.743694e+05 -2.337608e+05 -3.890850e+05 -9.023790e+05 -4.034903e+04 -4.034903e+04 -3.915776e+04 -2.640300e+05 -2.699772e+05 -2.699772e+05 -3.220555e+05 -6.080786e+04 -6.080786e+04 -6.080786e+04 -6.509158e+04 -1.394554e+06 -3.865518e+05 -9.285571e+04 -9.285571e+04 -9.285571e+04 -8.460216e+04 -2.047089e+05 -1.942205e+05 -7.360874e+05 -7.360874e+05 -1.545123e+05 -1.768914e+05 -1.768126e+05 -1.995802e+05 -2.800423e+05 -5.133957e+04 -5.555057e+05 -5.227783e+05 -5.227783e+05 -5.352741e+05 -5.352741e+05 -8.306775e+05 -8.306775e+05 -1.479920e+05 -1.479920e+05 -7.927656e+05 -3.605017e+05 -4.639213e+04 -4.639213e+04 -9.851395e+04 -9.851395e+04 -6.007564e+04 -2.381440e+05 -7.327756e+04 -7.147925e+04 -3.335506e+05 -3.097386e+05 -1.287655e+06 -1.287655e+06 -9.264886e+05 -1.213784e+06 -1.966325e+04 -1.029652e+06 -1.029652e+06 -2.753838e+05 -2.510015e+05 -1.627249e+06 -1.454419e+06 -1.147566e+06 -2.302728e+05 -4.113600e+05 -6.731721e+04 -6.731721e+04 -2.090887e+05 -2.459570e+04 -8.593193e+05 -3.651450e+05 -4.337632e+04 -1.305155e+05 -1.305155e+05 -1.305155e+05 -1.262104e+05 -1.262104e+05 -1.997680e+05 -2.047535e+05 -1.194939e+05 -1.185918e+05 -3.760521e+05 -1.070054e+06 -8.576176e+04 -2.815481e+05 -1.545369e+06 -1.789490e+05 -4.277837e+05 -2.596545e+05 -2.596545e+05 -2.596545e+05 -2.240320e+05 -1.855638e+05 -8.928388e+04 -8.382369e+04 -4.368926e+05 -4.368926e+05 -3.984732e+05 -2.396696e+05 -2.396696e+05 -2.717361e+05 -2.717361e+05 -1.009454e+05 -2.496605e+05 -3.048717e+05 -3.048717e+05 -1.330326e+05 -1.330326e+05 -8.362459e+04 -1.166917e+05 -1.166917e+05 -1.170232e+05 -2.009070e+05 -2.009070e+05 -2.022438e+05 -2.022438e+05 -2.022438e+05 -2.046655e+05 -9.313627e+04 -2.522028e+04 -1.960071e+05 -1.960071e+05 -2.022310e+05 -1.725282e+04 -1.103495e+05 -9.993627e+04 -2.200712e+05 -5.711389e+05 -7.175047e+04 -6.778602e+04 -1.639407e+05 -1.639407e+05 -7.507756e+04 -7.507756e+04 -1.541624e+05 -2.059961e+05 -2.047705e+05 -2.047705e+05 -1.147202e+05 -1.073442e+05 -1.725282e+04 -1.161756e+05 -1.388518e+05 -1.388518e+05 -6.665305e+04 -2.102090e+05 -2.102090e+05 -2.122042e+05 -2.330744e+05 -2.330744e+05 -2.171753e+04 -2.171753e+04 -2.891463e+04 -1.246359e+05 -1.246359e+05 -1.246359e+05 -1.317256e+05 -2.250717e+05 -4.125953e+04 -8.388411e+03 -1.127149e+05 -1.127149e+05 -1.733481e+05 -1.733481e+05 -1.836063e+05 -1.587574e+04 -1.800380e+05 -1.967108e+05 -1.967108e+05 -1.213597e+05 -2.400187e+05 -2.400187e+05 -2.253178e+05 -1.975429e+05 -1.045386e+05 -1.764266e+05 -1.764266e+05 -1.764266e+05 -4.259823e+04 -5.462256e+04 -1.586364e+05 -1.430828e+05 -1.430828e+05 -1.428306e+05 -1.428306e+05 -1.428306e+05 -1.613172e+05 -2.155819e+05 -1.105184e+05 -1.105184e+05 -9.996754e+04 -1.978593e+05 -1.484986e+05 -1.484986e+05 -1.484986e+05 -1.614313e+05 -1.304570e+05 -1.250124e+05 1.221288e+04 -1.936522e+04 -2.959342e+04 -5.817971e+04 -1.098985e+05 -9.650927e+04 -8.279358e+04 -8.279358e+04 -1.590174e+05 -1.590174e+05 -1.859574e+05 -1.774335e+05 -7.715312e+04 -7.715312e+04 -7.715312e+04 -1.568095e+05 -1.845648e+04 -1.446267e+05 -1.596659e+04 -1.093057e+05 -9.247511e+04 -8.133330e+04 -1.505962e+05 -1.714717e+05 -1.503882e+05 -1.357661e+05 -1.357661e+05 -4.820399e+04 -4.820399e+04 -4.820399e+04 -3.492561e+04 -9.172327e+04 -8.302605e+04 -8.167405e+04 -4.437015e+04 -7.371566e+04 -6.454783e+04 -4.546147e+04 -7.123084e+04 -1.044888e+05 -1.044888e+05 -1.044888e+05 -1.236393e+05 -1.300759e+05 -4.305380e+04 -4.305380e+04 -8.393560e+04 -8.393560e+04 -5.380603e+03 8.071380e+03 -6.399506e+04 9.516921e+03 -5.701893e+04 3.857461e+04 -1.431181e+03 -1.431181e+03 2.975672e+04 4.015273e+04 4.015273e+04 1.424045e+04 1.424045e+04 9.710445e+03 9.710445e+03 1.737268e+04 3.520541e+04 3.520541e+04 1.298939e+04 5.022928e+04 6.590262e+04 7.413299e+04 1.095069e+04 1.095069e+04 1.095069e+04 -1.717053e+05 -1.717053e+05 -1.717053e+05 -1.747599e+05 -1.747599e+05 -1.286461e+03 -1.286461e+03 -1.286461e+03 2.754854e+03 -1.795972e+05 -1.795972e+05 -1.783739e+05 -1.783739e+05 -2.279987e+05 -2.279987e+05 -2.279987e+05 -2.174182e+04 -2.174182e+04 -2.174182e+04 -5.398329e+03 -7.550665e+04 -7.550665e+04 -7.550665e+04 -6.906395e+04 -5.701313e+04 -5.701313e+04 -1.006242e+05 -1.006242e+05 -1.006242e+05 -1.191207e+05 -1.191207e+05 -1.191207e+05 -1.511563e+05 -1.511563e+05 -1.511563e+05 -1.584394e+05 -1.584394e+05 -1.584394e+05 -1.602306e+05 -2.996916e+04 -2.996916e+04 -2.996916e+04 -5.318264e+04 -5.318264e+04 -5.318264e+04 -1.970210e+04 -1.970210e+04 -1.970210e+04 -3.554501e+04 -3.554501e+04 -3.554501e+04 -4.218836e+04 -4.218836e+04 1.615115e+04 1.615115e+04 1.010006e+03 -1.032289e+04 3.505065e+04 3.505065e+04 3.505065e+04 -3.319647e+04 -3.319647e+04 -1.099178e+05 -1.099178e+05 -1.099178e+05 -8.127068e+04 -8.127068e+04 -8.127068e+04 -1.149152e+05 -1.149152e+05 -1.149152e+05 -1.194800e+05 -1.304079e+05 -1.304079e+05 -1.304079e+05 -1.284033e+05 -1.352735e+05 -1.352735e+05 -1.352735e+05 -1.113213e+05 -1.113213e+05 -1.113213e+05 -1.118876e+05 -1.145819e+05 -8.503737e+04 -8.503737e+04 -8.503737e+04 -1.349692e+05 -1.349692e+05 -1.212870e+05 -1.212870e+05 -1.175677e+05 -1.068698e+05 -1.068698e+05 -6.972172e+04 -6.972172e+04 -6.972172e+04 -5.746654e+04 -5.746654e+04 -5.902645e+04 -5.902645e+04 -5.902645e+04 -1.165804e+05 -3.646202e+04 -3.646202e+04 -3.646202e+04 7.074152e+02 -1.488673e+04 6.545012e+04 6.545012e+04 1.709971e+04 1.709971e+04 -5.983337e+04 -5.983337e+04 -5.983337e+04 -5.504961e+04 -5.043385e+04 -1.705997e+05 -1.705997e+05 -1.139411e+05 -1.797396e+05 -1.370064e+05 -1.370064e+05 -1.370064e+05 -9.872812e+04 -1.551443e+05 -1.551443e+05 -1.127948e+05 -8.800201e+04 -8.800201e+04 -8.744746e+04 -4.067102e+04 -4.067102e+04 -7.975516e+04 -7.975516e+04 -7.975516e+04 -2.098617e+05 -2.098617e+05 -2.098617e+05 -1.618718e+05 -1.652447e+05 -4.158484e+04 -1.868930e+05 -1.868930e+05 -1.868930e+05 -1.947658e+05 -1.396290e+05 -1.396290e+05 -6.929400e+04 -6.929400e+04 -1.025622e+05 -1.551963e+05 -1.551963e+05 -1.468971e+05 -1.468971e+05 -9.800519e+04 -9.800519e+04 -9.800519e+04 -1.789811e+04 -1.789811e+04 6.168464e+01 6.168464e+01 -1.256156e+05 -8.912199e+04 -8.912199e+04 -8.912199e+04 -1.049436e+05 -1.049436e+05 -5.536580e+04 -5.536580e+04 -1.707303e+05 -1.707303e+05 -8.323243e+03 -8.323243e+03 -9.346673e+04 -7.304173e+04 -7.304173e+04 -7.297497e+04 -7.297497e+04 -1.504175e+05 -1.504175e+05 -1.504175e+05 -7.816500e+04 -7.816500e+04 -7.816500e+04 -1.584495e+05 -1.199380e+05 -1.055892e+05 -9.989737e+04 -9.989737e+04 -9.603446e+04 -1.430338e+05 -6.634087e+04 -6.634087e+04 -5.078928e+04 -5.078928e+04 -5.078928e+04 -1.634485e+05 -1.624304e+05 -1.624304e+05 -4.847548e+04 -4.847548e+04 -4.566993e+04 -7.343258e+04 -7.430549e+04 -7.430549e+04 -1.511169e+04 -1.511169e+04 -1.511169e+04 -4.155767e+04 -4.155767e+04 -2.846673e+03 -5.930823e+04 -9.755960e+04 -9.755960e+04 1.955843e+04 -1.060899e+05 -1.060899e+05 -9.106716e+04 -8.265111e+04 -8.265111e+04 -8.286920e+04 -2.724710e+04 -2.724710e+04 -1.133865e+05 -1.133865e+05 -4.051602e+04 -8.319892e+04 -8.319892e+04 -6.944056e+04 -6.944056e+04 -6.708181e+04 -4.410052e+04 -9.458796e+04 -9.458796e+04 -6.470625e+04 -7.186346e+04 -1.477089e+05 -1.477089e+05 -9.956859e+04 -8.645566e+04 -1.723508e+04 -1.723508e+04 -1.723508e+04 -2.631385e+04 -2.631385e+04 -2.631385e+04 -5.905846e+04 -5.905846e+04 1.819460e+03 1.819460e+03 1.819460e+03 -7.852973e+04 -1.682043e+04 -2.681337e+04 -2.459498e+04 -9.274381e+03 -9.274381e+03 -9.274381e+03 -6.366478e+04 -3.439905e+04 -3.439905e+04 -4.356748e+04 -4.356748e+04 -4.356748e+04 2.007637e+04 -7.055106e+04 -3.884218e+04 -3.884218e+04 -2.829220e+04 -2.829220e+04 -2.829220e+04 -3.221482e+04 -1.507785e+04 -1.018614e+05 -1.018614e+05 -1.018614e+05 -9.092596e+04 -9.092596e+04 -8.420353e+04 2.068464e+04 -2.208097e+04 -5.079766e+04 -2.227223e+04 -2.227223e+04 -2.216079e+04 -2.310877e+04 -2.310877e+04 9.222323e+03 9.222323e+03 9.222323e+03 -3.398717e+04 -3.472627e+04 -7.291687e+04 -1.948649e+04 -9.214732e+03 -1.942012e+04 -6.774060e+04 2.120745e+04 2.120745e+04 2.199090e+04 4.812818e+03 4.812818e+03 -2.769240e+04 1.633942e+04 1.633942e+04 1.633942e+04 -5.035274e+03 -5.035274e+03 -4.798929e+04 -4.798929e+04 -4.408699e+04 -6.241139e+03 -6.241139e+03 6.325787e+03 -3.191605e+04 -2.175269e+04 3.390669e+03 1.646391e+04 7.751303e+03 -1.106130e+04 1.646391e+04 4.127533e+04 -2.483650e+05 -2.483650e+05 -1.386182e+05 -1.386182e+05 -2.107831e+05 -2.107831e+05 -1.469149e+05 -1.653541e+05 -2.127359e+05 -2.224790e+05 -3.452646e+05 3.332728e+04 3.332728e+04 -1.448038e+04 -1.102425e+05 -1.160760e+05 5.131824e+03 5.131824e+03 -2.165531e+05 -2.236139e+05 -2.546175e+05 -2.319992e+05 -2.319992e+05 -2.319992e+05 -2.064511e+05 -2.064511e+05 -2.064511e+05 -2.129540e+05 -1.966009e+05 -1.966009e+05 -1.976975e+05 -1.976975e+05 -2.307734e+05 -2.169221e+05 -2.300157e+05 -4.198244e+04 3.325193e+04 4.998673e+04 6.518502e+04 -2.195587e+02 -2.195587e+02 -6.296366e+04 -1.821323e+05 -2.245708e+05 -1.928023e+05 -1.849275e+05 -1.849275e+05 -1.579017e+05 -1.264065e+05 -9.144814e+04 -6.697651e+04 -6.697651e+04 -4.312442e+04 3.893383e+03 -9.201843e+03 1.767668e+04 1.767668e+04 1.767668e+04 -4.768715e+04 -2.321709e+04 -3.120389e+04 -3.120389e+04 -1.361710e+05 -4.810729e+04 -4.810729e+04 -9.320600e+04 -1.297280e+05 -7.666455e+04 -7.666455e+04 1.442100e+04 1.442100e+04 1.442100e+04 1.138715e+04 1.138715e+04 1.833803e+04 -8.394596e+04 -7.406880e+04 -6.168900e+04 -3.516807e+04 1.734993e+03 -1.422486e+05 -1.081195e+05 -1.065439e+05 -3.654175e+04 -8.267226e+04 -2.125770e+04 -5.371660e+04 -2.547516e+04 -2.547516e+04 -5.190735e+03 -3.664750e+04 -2.662857e+04 -6.504973e+03 -3.394573e+04 1.536310e+04 5.793164e+03 5.793164e+03 8.317995e+03 -9.371662e+03 2.853787e+03 -3.321705e+04 -3.321705e+04 -4.344471e+04 -4.497607e+04 -1.534961e+04 -1.853123e+04 -5.434000e+02 -1.345082e+04 8.204624e+03 -3.615685e+04 5.434610e+03 5.434610e+03 5.434610e+03 6.494738e+03 1.313531e+03 1.313531e+03 -1.280808e+04 -1.280808e+04 -2.674182e+03 -4.227061e+03 -4.227061e+03 1.431639e+04 -1.087488e+04 -2.119030e+03 -7.189062e+03 1.521293e+04 1.033834e+04 1.955843e+04 1.955843e+04 1.737258e+04 -4.079221e+04 8.226070e+03 8.226070e+03 1.070821e+04 1.070821e+04 -3.428275e+03 1.520826e+04 1.373175e+04 1.080544e+04 1.080544e+04 -6.923362e+03 -6.923362e+03 1.708543e+04 1.059329e+05 1.417220e+05 4.781875e+04 8.699262e+04 9.785632e+04 -2.099593e+05 -2.099593e+05 -2.099593e+05 -2.299153e+05 -2.330261e+05 -2.330261e+05 -2.330261e+05 -2.398808e+05 -2.108639e+04 -2.108639e+04 7.097687e+04 7.097687e+04 -1.411051e+05 -6.207311e+04 -6.207311e+04 -6.207311e+04 1.316977e+05 -2.426240e+05 -2.426240e+05 -2.426240e+05 -2.429875e+05 -2.336986e+05 -2.483429e+05 -6.835627e+04 -6.835627e+04 -5.034574e+05 2.667212e+03 2.667212e+03 2.667212e+03 -8.145346e+05 -8.145346e+05 -8.145346e+05 -6.279209e+05 -6.279209e+05 -1.082427e+06 -4.513786e+05 -2.739961e+05 -2.670834e+05 -2.670834e+05 -3.592285e+05 -7.611136e+05 -3.660398e+05 -3.660398e+05 -3.660398e+05 -2.565750e+05 -2.565750e+05 -1.082427e+06 -5.665774e+05 -1.105441e+06 -6.679545e+05 -1.663941e+06 -1.663941e+06 -1.038420e+06 -7.664456e+05 -5.370785e+05 -2.474675e+05 -2.376058e+05 -2.279919e+05 -2.279919e+05 -1.950749e+05 -1.769775e+05 -1.620118e+05 -1.620118e+05 -1.620118e+05 -1.458784e+05 -1.458784e+05 -1.096701e+05 -8.629837e+04 -8.629837e+04 -4.055917e+03 -7.027235e+04 -7.027235e+04 -7.027235e+04 -6.942018e+04 -6.942018e+04 -9.386707e+04 -9.386707e+04 -9.386707e+04 -1.788780e+05 -1.788780e+05 -6.606117e+04 1.357795e+04 1.357795e+04 1.357795e+04 -1.135470e+05 -1.135470e+05 -1.135470e+05 -1.084224e+05 -1.063690e+05 -1.774889e+04 -1.774889e+04 -1.774889e+04 -1.286852e+05 -1.286852e+05 -1.286852e+05 -1.857459e+05 -1.857459e+05 -1.857459e+05 -1.834289e+05 -1.834289e+05 -1.567523e+05 -1.567523e+05 -1.567523e+05 -9.393787e+04 -9.393787e+04 -1.681399e+05 -1.681399e+05 -1.681399e+05 -1.648660e+05 -1.648660e+05 -1.427634e+05 -1.427634e+05 -1.427634e+05 -2.350057e+04 -2.350057e+04 -2.350057e+04 -1.316945e+05 -1.316945e+05 -1.316945e+05 -1.414706e+05 -1.414706e+05 -2.781228e+04 -2.781228e+04 -2.781228e+04 -2.060958e+04 -2.060958e+04 5.143481e+04 4.972474e+03 4.972474e+03 4.972474e+03 7.285101e+03 -4.454408e+04 -4.454408e+04 -4.454408e+04 -3.800487e+04 -5.726283e+03 -5.726283e+03 -5.726283e+03 -1.000230e+05 -1.100923e+05 -8.628364e+04 -8.628364e+04 -8.628364e+04 -9.033742e+04 2.874528e+03 2.874528e+03 2.874528e+03 -1.569797e+05 -1.569797e+05 -1.569797e+05 -1.495520e+05 -1.495520e+05 -1.288038e+05 -1.288038e+05 -1.288038e+05 -1.307524e+05 -1.434871e+05 -1.434871e+05 -1.326743e+05 -1.326743e+05 -1.588585e+05 -1.548234e+05 -1.527141e+05 -9.607552e+04 -3.451866e+05 -1.589748e+05 -1.769775e+05 -1.776124e+05 -1.776124e+05 -1.355298e+04 -1.355298e+04 -1.355298e+04 -7.912595e+04 -7.912595e+04 2.319566e+04 2.319566e+04 2.319566e+04 -1.857385e+05 -1.857385e+05 -1.857385e+05 -5.713524e+04 -5.713524e+04 -1.184320e+05 -1.184320e+05 -8.421285e+04 -8.421285e+04 -8.421285e+04 -1.121317e+05 -1.121317e+05 -1.121317e+05 -1.256171e+05 -1.256171e+05 -1.256171e+05 -1.892344e+05 -2.829207e+04 -2.829207e+04 -1.025793e+05 -1.025793e+05 -8.877500e+04 -8.877500e+04 -1.458520e+05 -1.458520e+05 -1.514038e+05 -1.736429e+05 -1.736429e+05 -1.736429e+05 -1.725837e+05 -2.724488e+05 -2.404896e+05 -1.580554e+05 -5.297250e+04 -5.297250e+04 -5.297250e+04 -1.355731e+05 -1.355731e+05 -1.923119e+05 -1.923119e+05 -2.000909e+05 -2.000909e+05 -2.066661e+05 -2.066661e+05 -1.168751e+05 -1.168751e+05 -1.243864e+05 -1.710273e+05 -1.710273e+05 -6.540462e+04 -6.540462e+04 -6.540462e+04 -1.313455e+05 -1.242028e+05 -1.552611e+05 -7.655524e+04 -7.655524e+04 -7.655524e+04 -8.081430e+04 -8.081430e+04 -8.081430e+04 -1.004798e+05 -5.565975e+04 -5.565975e+04 -5.565975e+04 -4.668130e+04 -4.668130e+04 -4.668130e+04 -1.089752e+05 -1.089752e+05 -1.883601e+05 -1.809531e+05 -8.576525e+04 -8.576525e+04 -9.391010e+04 -9.391010e+04 -9.665201e+04 -9.254927e+04 -1.418766e+05 -1.062976e+05 -1.100495e+05 -1.100495e+05 -1.151291e+05 -7.668942e+04 -4.940460e+04 -4.940460e+04 -1.481584e+05 -1.518338e+05 -7.302529e+04 -7.302529e+04 -5.370461e+04 -9.703268e+04 -9.703268e+04 -1.027081e+05 -6.154236e+04 -6.154236e+04 -6.154236e+04 -9.272087e+04 -8.891851e+04 -6.563179e+04 -6.563179e+04 -6.563179e+04 -4.338661e+04 -4.338661e+04 -1.652866e+05 -1.056610e+05 -1.230079e+05 -1.230079e+05 -1.197358e+05 -2.816004e+04 -1.048935e+05 -1.048935e+05 -1.048935e+05 -1.024017e+05 -9.727467e+04 -1.936008e+04 -1.936008e+04 -1.936008e+04 -2.419544e+04 -4.071242e+04 -4.071242e+04 -4.043674e+04 -4.043674e+04 -7.817748e+04 -1.151262e+05 -1.045283e+05 -1.103963e+05 -7.216797e+04 -7.216797e+04 -7.216797e+04 -6.994306e+04 -6.994306e+04 -2.884088e+04 -2.884088e+04 -2.884088e+04 -9.736573e+04 -4.036266e+04 -3.662696e+04 -3.662696e+04 -6.472302e+04 -6.472302e+04 -8.038399e+04 -8.739392e+04 -5.136923e+04 -5.136923e+04 -5.136923e+04 -2.050610e+04 -2.050610e+04 -4.419635e+03 -4.419635e+03 -4.419635e+03 -4.832055e+04 -4.832055e+04 -5.455207e+04 -3.608337e+04 -3.608337e+04 1.040121e+04 1.040121e+04 5.134191e+03 5.134191e+03 -5.619081e+04 -6.563042e+04 -6.563042e+04 1.945719e+03 1.945719e+03 -8.156106e+04 -3.097890e+04 -3.484260e+04 -3.484260e+04 -5.236687e+04 -2.357890e+04 -2.357890e+04 -4.497020e+04 -4.497020e+04 -4.497020e+04 -3.915327e+04 -1.055317e+03 -1.055317e+03 -1.055317e+03 -1.306787e+04 -4.941783e+03 -9.377214e+04 -9.377214e+04 -9.377214e+04 -6.497698e+04 -3.205226e+04 -1.753160e+04 -2.929269e+04 -3.779229e+04 -5.301249e+04 -7.609249e+04 -1.240687e+04 -1.240687e+04 -2.020508e+03 2.134526e+04 2.134526e+04 2.134526e+04 -1.583645e+04 -1.543358e+04 -6.062449e+04 -1.104795e+04 -6.426948e+03 -7.232524e+03 -5.688274e+04 7.492638e+02 7.492638e+02 -1.297715e+04 -4.609412e+04 2.638633e+04 2.583084e+04 -3.587141e+04 -3.587141e+04 -2.583588e+04 8.167435e+03 2.638633e+04 1.266495e+04 1.266495e+04 1.266495e+04 1.417356e+04 -3.188679e+04 -7.980604e+03 2.936560e+04 1.987484e+04 1.987484e+04 1.987484e+04 1.458746e+04 1.458746e+04 2.936560e+04 -4.485104e+02 -4.485104e+02 2.649968e+04 -1.165315e+04 -1.165315e+04 -1.185908e+04 -1.564191e+02 3.203350e+04 3.203350e+04 3.203350e+04 8.898548e+03 1.408388e+04 1.408388e+04 2.714127e+04 -4.055917e+03 -4.055917e+03 3.370621e+04 2.880235e+04 3.048757e+04 2.183104e+04 2.183104e+04 1.865749e+04 3.814313e+04 3.774327e+04 3.774327e+04 4.294401e+04 3.370621e+04 3.370621e+04 4.036199e+04 -9.574930e+04 -1.701662e+05 -2.075561e+05 -2.712110e+05 -2.712110e+05 -1.143951e+05 -1.409919e+05 -1.409919e+05 -1.736861e+05 -1.761701e+05 -2.069301e+05 -2.069301e+05 -2.097751e+05 -1.781456e+05 -2.481987e+05 -2.485715e+05 -2.058385e+05 -6.877620e+04 -1.978213e+04 1.139006e+04 -1.220942e+05 -2.358961e+05 -2.483007e+05 -1.810436e+05 -4.136118e+04 -4.103032e+04 2.818141e+02 6.970499e+03 -1.245438e+05 5.696782e+03 -1.317742e+05 8.350962e+03 1.735088e+04 1.735088e+04 1.735088e+04 -9.193515e+03 -7.834776e+04 -7.834776e+04 -7.447741e+04 -1.284507e+05 -1.371096e+05 -1.127744e+05 -6.000025e+04 -1.080875e+05 -7.566083e+04 -4.424116e+04 -3.754036e+04 -3.754036e+04 -2.460242e+04 -1.218240e+04 -7.266546e+04 -4.540277e+04 -4.540277e+04 -6.979464e+04 -5.053621e+04 -7.734896e+03 -4.293236e+04 -1.098643e+04 -5.157212e+03 -3.599802e+04 -1.290424e+04 -1.599361e+04 -1.599361e+04 -3.238309e+04 -2.122966e+04 -2.400960e+04 8.253965e+03 1.123070e+04 1.123070e+04 -2.836426e+03 -4.002541e+04 2.374068e+03 2.374068e+03 -1.587049e+04 1.330460e+04 1.330460e+04 7.632782e+03 7.632782e+03 -6.037166e+03 3.466653e+02 -1.210729e+04 -1.401657e+04 1.818010e+04 1.818010e+04 1.818010e+04 -3.262318e+04 -1.257200e+03 4.084205e+03 1.726169e+04 -9.022629e+03 -3.286777e+04 -2.706438e+04 6.945892e+03 -2.102235e+04 4.565366e+02 4.565366e+02 -9.442771e+02 1.390829e+04 1.390829e+04 -6.153846e+03 -6.153846e+03 -8.582974e+03 -5.975333e+04 3.116565e+03 9.328918e+03 1.182522e+04 2.271037e+04 1.906558e+04 9.502447e+03 2.760124e+02 6.358129e+03 1.593267e+04 -1.124829e+04 -1.261383e+04 -1.424201e+04 -1.628706e+04 -1.841637e+04 -1.885690e+04 -1.952871e+04 -2.161208e+04 -2.411258e+04 -2.406405e+04 -2.125728e+04 -1.671203e+04 -1.396485e+04 -1.897941e+04 -1.911907e+04 -2.337928e+04 -2.061117e+04 -1.259256e+04 -1.061939e+04 -1.445958e+04 -1.476590e+04 -6.891452e+03 -8.369303e+03 -1.409372e+04 -9.378399e+03 -2.385730e+03 1.172393e+03 -7.412384e+03 -1.425931e+04 -5.016456e+02 -2.368025e+01 6.862400e+02 3.489230e+01 3.324927e+01 -3.460088e+03 -6.603255e+03 -2.060539e+02 -4.590258e+03 -4.684122e+03 2.399880e+04 -1.164192e+02 -5.990919e+03 -3.456009e+03 -8.010333e+03 1.492376e+05 6.192706e+04 -3.121929e+05 -7.605310e+03 3.814995e+03 -1.949459e+04 3.352305e+03 -8.431753e+03 -9.945118e+03 -7.544294e+03 -7.459561e+03 -9.864691e+03 -4.029378e+04 3.825024e+02 6.847777e+03 -2.826441e+04 1.512958e+05 1.328521e+03 1.314768e+03 -2.051409e+04 -1.207296e+04 2.306890e+02 -9.526431e+03 -7.442228e+03 -7.402199e+03 3.856567e+04 1.486926e+04 1.172166e+04 2.533463e+03 -4.787470e+03 -1.906011e+03 -2.063108e+03 1.094699e+05 -1.412412e+05 -7.611136e+05 -4.622743e+05 -2.587481e+05 -2.587481e+05 -2.712110e+05 -2.326611e+05 -2.097751e+05 -2.075561e+05 -2.075561e+05 -2.069301e+05 -1.903404e+05 -1.824298e+05 -1.788780e+05 -1.786562e+05 -1.774903e+05 -1.752530e+05 -1.701662e+05 -1.588585e+05 -1.544334e+05 -1.504454e+05 -1.427552e+05 -1.398891e+05 -1.371096e+05 -1.317588e+05 -1.317588e+05 -1.272117e+05 -1.201859e+05 -1.184320e+05 -1.143951e+05 -1.117763e+05 -1.080875e+05 -1.025793e+05 -9.719916e+04 -9.574930e+04 -9.356251e+04 -8.877500e+04 -8.679482e+04 -7.988214e+04 -7.834776e+04 -7.566083e+04 -7.266546e+04 -7.112538e+04 -6.523601e+04 -6.420421e+04 -6.000025e+04 -5.713524e+04 -5.510838e+04 -5.053621e+04 -4.954631e+04 -4.424116e+04 -4.424116e+04 -4.156983e+04 -3.754036e+04 -3.238309e+04 -3.238309e+04 -2.829207e+04 -2.460242e+04 -2.460242e+04 -2.122966e+04 -1.800836e+04 -1.599361e+04 -1.218240e+04 -1.218240e+04 -7.734896e+03 -7.734896e+03 -5.157212e+03 -2.836426e+03 3.466653e+02 2.374068e+03 4.084205e+03 8.253965e+03 8.253965e+03 1.123070e+04 1.329582e+04 1.526605e+04 1.830385e+04 1.830385e+04 -3.236667e+03 -3.236667e+03 -3.236667e+03 1.372830e+02 6.218120e+04 6.218120e+04 6.218120e+04 3.945345e+04 3.945345e+04 3.945345e+04 4.375676e+04 -2.603026e+04 -2.603026e+04 -2.603026e+04 -4.018476e+04 -8.394592e+04 -8.394592e+04 -8.394592e+04 -9.330131e+04 -2.262135e+05 -2.262135e+05 -2.262135e+05 -2.211837e+05 -2.139175e+05 -1.714802e+05 -1.714802e+05 -1.714802e+05 -1.687104e+05 8.863197e+01 8.863197e+01 8.863197e+01 -7.062775e+04 -7.062775e+04 -7.062775e+04 -6.677052e+04 -6.820411e+04 -3.105862e+05 -3.105862e+05 -3.105862e+05 -4.767568e+05 -2.530991e+04 -2.530991e+04 -2.530991e+04 -1.785009e+04 -1.785009e+04 -7.592735e+04 -7.592735e+04 -7.592735e+04 -8.382685e+04 -1.243896e+05 -4.825475e+04 -4.825475e+04 -4.825475e+04 -1.374296e+05 -2.354367e+05 -1.364884e+05 -1.364884e+05 -1.364884e+05 -1.504745e+05 -2.256136e+05 -2.256136e+05 -2.256136e+05 -1.490646e+04 -1.490646e+04 -3.317736e+04 -3.317736e+04 -1.206733e+05 -1.206733e+05 -1.206733e+05 -3.050184e+04 -1.857314e+05 -1.857314e+05 -1.857314e+05 -4.789321e+04 -5.018082e+05 -5.018082e+05 -1.337248e+06 -1.337248e+06 -4.197656e+05 -4.197656e+05 -4.197656e+05 -3.303773e+05 -3.303773e+05 -1.216341e+06 -1.216341e+06 -1.216341e+06 -1.016660e+06 -1.016660e+06 -1.334060e+04 -2.791593e+05 -2.791593e+05 -2.791593e+05 -2.855844e+05 -5.454125e+04 -5.454125e+04 -5.454125e+04 -5.797906e+04 -5.797906e+04 -1.018347e+05 -1.018347e+05 -1.018347e+05 -8.900024e+04 -8.900024e+04 -1.409455e+05 -1.409455e+05 -1.409455e+05 -1.443300e+05 -1.443300e+05 -1.677029e+05 -1.677029e+05 -1.677029e+05 -1.592757e+05 -1.592757e+05 -1.768036e+04 -1.768036e+04 -1.768036e+04 -1.606774e+04 -2.974456e+04 -2.974456e+04 -2.974456e+04 -3.241227e+04 -1.099869e+05 -1.099869e+05 -1.099869e+05 -1.188758e+05 -1.188758e+05 -3.621318e+04 -3.621318e+04 -3.621318e+04 -2.501983e+04 -2.501983e+04 -2.501983e+04 -2.099785e+04 -2.099785e+04 3.298057e+04 3.298057e+04 3.298057e+04 2.524075e+04 2.524075e+04 -4.748108e+04 -4.748108e+04 -4.748108e+04 -3.406742e+04 -1.114380e+05 -1.114380e+05 -1.855466e+05 -1.855466e+05 -1.855466e+05 -5.424977e+04 -5.424977e+04 -4.279026e+04 -4.279026e+04 -3.437745e+04 -3.437745e+04 -3.437745e+04 -3.488905e+04 -4.390988e+05 -4.390988e+05 -4.390988e+05 -3.078748e+05 -3.282576e+04 -3.282576e+04 -3.963465e+05 -3.963465e+05 -3.963465e+05 -9.601158e+04 -9.601158e+04 -9.601158e+04 -1.129318e+05 -1.129318e+05 -1.041966e+06 -1.041966e+06 -1.041966e+06 -1.462087e+06 -1.462087e+06 -1.955746e+05 -1.955746e+05 -1.352201e+05 -1.806078e+05 -1.806078e+05 -1.806078e+05 -2.892941e+04 -2.892941e+04 -1.425931e+04 -1.152222e+05 -1.152222e+05 -1.152222e+05 -8.043709e+04 -7.806523e+04 -3.009930e+04 4.459163e+03 4.459163e+03 4.459163e+03 -1.958495e+05 -1.958495e+05 -1.958495e+05 -1.508218e+05 -1.508218e+05 -1.508218e+05 -5.968379e+05 -5.968379e+05 -5.968379e+05 -3.795767e+05 -3.795767e+05 -2.096759e+05 -2.096759e+05 -2.096759e+05 -2.