<?xml version="1.0"?>
 <VTKFile type="UnstructuredGrid" version="1.0" byte_order="LittleEndian" header_type="UInt64">
  <UnstructuredGrid>
    <FieldData>
     <DataArray type="Float64" Name="TimeValue" NumberOfTuples="1" format="ascii">
0.007
     </DataArray>
    </FieldData>
   <Piece NumberOfPoints="3632" NumberOfCells="3379">
    <PointData>
     <DataArray type="Float64" Name="pointP" format="ascii">
1.359106e+05 1.359106e+05 1.358590e+05 1.355735e+05 1.354441e+05 1.356948e+05 1.353909e+05 1.348085e+05 1.346722e+05 1.356252e+05 1.349183e+05 1.345863e+05 1.346061e+05 1.340263e+05 1.343643e+05 1.334425e+05 1.339949e+05 1.332143e+05 1.331795e+05 1.326412e+05 1.330221e+05 1.325433e+05 1.323591e+05 1.321986e+05 1.319140e+05 1.313250e+05 1.308784e+05 1.320116e+05 1.310736e+05 1.301834e+05 1.302298e+05 1.299126e+05 1.296415e+05 1.288612e+05 1.283517e+05 1.283250e+05 1.281413e+05 1.275868e+05 1.270923e+05 1.267561e+05 1.265180e+05 1.260246e+05 1.257837e+05 1.252660e+05 1.249002e+05 1.245922e+05 1.241334e+05 1.236576e+05 1.231202e+05 1.227324e+05 1.223402e+05 1.219527e+05 1.217050e+05 1.212218e+05 1.205712e+05 1.202009e+05 1.196580e+05 1.192471e+05 1.187999e+05 1.183550e+05 1.179250e+05 1.175387e+05 1.169571e+05 1.165430e+05 1.161103e+05 1.157061e+05 1.150933e+05 1.146342e+05 1.142015e+05 1.138188e+05 1.132815e+05 1.128523e+05 1.123869e+05 1.119484e+05 1.113571e+05 1.109018e+05 1.104191e+05 1.099425e+05 1.095397e+05 1.091346e+05 1.085288e+05 1.080517e+05 1.075452e+05 1.070952e+05 1.066643e+05 1.061975e+05 1.057245e+05 1.052788e+05 1.047209e+05 1.042409e+05 1.037963e+05 1.033316e+05 1.028606e+05 1.024323e+05 1.019585e+05 1.014639e+05 1.010057e+05 1.005480e+05 1.000459e+05 9.944829e+04 9.899646e+04 9.855528e+04 9.813184e+04 9.760545e+04 9.718110e+04 9.678031e+04 9.638727e+04 9.593732e+04 9.550424e+04 9.513664e+04 9.475267e+04 9.434237e+04 9.393465e+04 9.336634e+04 9.292020e+04 9.246049e+04 9.205512e+04 9.166798e+04 9.122317e+04 9.071684e+04 9.032505e+04 8.993497e+04 8.954119e+04 8.921082e+04 8.884573e+04 8.841086e+04 8.803885e+04 8.763530e+04 8.728570e+04 8.701113e+04 8.672475e+04 8.630430e+04 8.594127e+04 8.557378e+04 8.531335e+04 8.491000e+04 8.459522e+04 8.432684e+04 8.397980e+04 8.368006e+04 8.339080e+04 8.300774e+04 8.271164e+04 8.242094e+04 8.213686e+04 8.190833e+04 8.161800e+04 8.139865e+04 8.114009e+04 8.097181e+04 8.075809e+04 8.047070e+04 8.024696e+04 8.004779e+04 7.981298e+04 7.960410e+04 7.943276e+04 7.918843e+04 7.899296e+04 7.877149e+04 7.858411e+04 7.835730e+04 7.819590e+04 7.805628e+04 7.789684e+04 7.776136e+04 7.758018e+04 7.741948e+04 7.723444e+04 7.711848e+04 7.689381e+04 7.672663e+04 7.658233e+04 7.644630e+04 7.639639e+04 7.629607e+04 7.623460e+04 7.616582e+04 7.603988e+04 7.593789e+04 7.595743e+04 1.025532e+05 1.025532e+05 1.025532e+05 1.038987e+05 1.038987e+05 1.038987e+05 1.042125e+05 1.039395e+05 1.057726e+05 1.048009e+05 1.075617e+05 1.075617e+05 1.075617e+05 1.075598e+05 9.819897e+04 9.819897e+04 9.819897e+04 9.817801e+04 9.863125e+04 1.252855e+05 1.252855e+05 1.252855e+05 1.252157e+05 1.249613e+05 1.249613e+05 1.249613e+05 1.243554e+05 1.007712e+05 1.007712e+05 1.007712e+05 1.012509e+05 1.016338e+05 1.016552e+05 8.573223e+04 8.573223e+04 8.573223e+04 8.505206e+04 8.505206e+04 1.242372e+05 1.242372e+05 1.242372e+05 1.237762e+05 8.170420e+04 8.170420e+04 8.170420e+04 8.120095e+04 8.120095e+04 1.339244e+05 1.339244e+05 1.339244e+05 1.113008e+05 1.113008e+05 1.113008e+05 1.115727e+05 1.068677e+05 1.068677e+05 1.068677e+05 1.222897e+05 1.222897e+05 1.222897e+05 1.223596e+05 8.696350e+04 8.696350e+04 8.695933e+04 8.695933e+04 1.129899e+05 1.129899e+05 1.133665e+05 1.230961e+05 1.230961e+05 1.230961e+05 1.235480e+05 1.235480e+05 7.896095e+04 7.896095e+04 7.896095e+04 7.945627e+04 7.945627e+04 1.000506e+05 1.000506e+05 1.000506e+05 9.941102e+04 9.941102e+04 1.260527e+05 1.260527e+05 1.136714e+05 1.136714e+05 1.136714e+05 1.137790e+05 1.069167e+05 1.069167e+05 1.069167e+05 1.067474e+05 1.067865e+05 1.146824e+05 1.146824e+05 1.146824e+05 1.120478e+05 1.120478e+05 1.122374e+05 1.283250e+05 1.283143e+05 1.283143e+05 7.644630e+04 7.674686e+04 7.674686e+04 1.064441e+05 8.884573e+04 8.910618e+04 1.067903e+05 1.037399e+05 1.037399e+05 1.037399e+05 1.042239e+05 9.974355e+04 1.037668e+05 1.037668e+05 1.037668e+05 1.046254e+05 1.046254e+05 9.766735e+04 9.766735e+04 9.766735e+04 9.828777e+04 9.249409e+04 9.249409e+04 9.249409e+04 9.233427e+04 1.244328e+05 1.242393e+05 1.235343e+05 1.260453e+05 1.260453e+05 1.052639e+05 1.052639e+05 1.052639e+05 1.057193e+05 1.166953e+05 1.166953e+05 1.166953e+05 1.172855e+05 1.172855e+05 1.167792e+05 8.957140e+04 8.957140e+04 8.957140e+04 8.924622e+04 9.257032e+04 9.257032e+04 9.257032e+04 9.313129e+04 9.344017e+04 1.128388e+05 1.128388e+05 1.128388e+05 1.129147e+05 8.028683e+04 7.892049e+04 9.729513e+04 9.729513e+04 9.729513e+04 9.782046e+04 8.630559e+04 8.630559e+04 8.630559e+04 8.656971e+04 1.203722e+05 1.203722e+05 1.203722e+05 1.211360e+05 1.211360e+05 8.344925e+04 8.344925e+04 8.344925e+04 8.373963e+04 1.201181e+05 1.201181e+05 1.201181e+05 1.198965e+05 1.243390e+05 1.243390e+05 1.243390e+05 1.242768e+05 8.957672e+04 8.957672e+04 8.957181e+04 1.072941e+05 1.072941e+05 1.085164e+05 1.085164e+05 1.085164e+05 1.046779e+05 1.046779e+05 1.046779e+05 1.044565e+05 7.660385e+04 7.660385e+04 7.660385e+04 7.651528e+04 7.651528e+04 1.314477e+05 1.314477e+05 1.314477e+05 1.311161e+05 1.311161e+05 1.075712e+05 1.193065e+05 1.193065e+05 1.196687e+05 7.621432e+04 7.621432e+04 7.621432e+04 7.619565e+04 7.996323e+04 7.996323e+04 8.019882e+04 8.019882e+04 1.267074e+05 1.267074e+05 1.270218e+05 1.230991e+05 1.230991e+05 7.891426e+04 7.891426e+04 7.915488e+04 7.915488e+04 1.214380e+05 1.214380e+05 1.214380e+05 1.211989e+05 1.065876e+05 1.062879e+05 1.127645e+05 1.127645e+05 1.127645e+05 1.124780e+05 1.157522e+05 1.157522e+05 1.157522e+05 1.152284e+05 1.152284e+05 7.775007e+04 7.775007e+04 7.775007e+04 7.769790e+04 7.769790e+04 1.138952e+05 1.143868e+05 1.334865e+05 1.334865e+05 1.334865e+05 1.334068e+05 8.060073e+04 8.060073e+04 8.060073e+04 8.015516e+04 8.015516e+04 8.061799e+04 8.081841e+04 1.079312e+05 1.079312e+05 1.079312e+05 1.074461e+05 1.074461e+05 1.020631e+05 1.022654e+05 1.022654e+05 8.720876e+04 8.720876e+04 8.720876e+04 8.740812e+04 8.740812e+04 8.960988e+04 8.960988e+04 8.960988e+04 8.916627e+04 8.916627e+04 8.249798e+04 8.249798e+04 8.307473e+04 8.307473e+04 1.073661e+05 1.073661e+05 1.068939e+05 8.378921e+04 8.378921e+04 8.359736e+04 8.359736e+04 8.899478e+04 8.899478e+04 8.899478e+04 8.995278e+04 9.836756e+04 9.836756e+04 9.836756e+04 9.734087e+04 9.734087e+04 1.222385e+05 1.240767e+05 1.195457e+05 1.041463e+05 1.041463e+05 1.041463e+05 1.049040e+05 1.049040e+05 1.067624e+05 1.067624e+05 1.071517e+05 1.027271e+05 1.027271e+05 1.026472e+05 1.019673e+05 1.079902e+05 1.079902e+05 1.079902e+05 1.072549e+05 1.072549e+05 1.072549e+05 1.103285e+05 1.103285e+05 1.103285e+05 9.808828e+04 9.863529e+04 1.052390e+05 1.105235e+05 1.105235e+05 1.105235e+05 1.098022e+05 1.130390e+05 1.130390e+05 1.130390e+05 1.130863e+05 1.130863e+05 1.130863e+05 1.126697e+05 9.147719e+04 9.147719e+04 9.147719e+04 9.875155e+04 9.875155e+04 9.875155e+04 1.092530e+05 1.092530e+05 1.092530e+05 1.206112e+05 1.206112e+05 1.206908e+05 8.766370e+04 9.179907e+04 9.179907e+04 1.256105e+05 1.256105e+05 1.256105e+05 1.266276e+05 1.266276e+05 1.051446e+05 1.051446e+05 7.774792e+04 7.827722e+04 7.892049e+04 1.291508e+05 1.291508e+05 1.291508e+05 1.287404e+05 9.368219e+04 9.368219e+04 9.368219e+04 1.064713e+05 1.064143e+05 1.060877e+05 9.836133e+04 9.836133e+04 9.836133e+04 8.665015e+04 8.665015e+04 8.665015e+04 8.650550e+04 8.621450e+04 1.078382e+05 1.078382e+05 1.078382e+05 1.321365e+05 1.321365e+05 1.321365e+05 1.321033e+05 1.162108e+05 1.162108e+05 1.162108e+05 1.160562e+05 1.323574e+05 1.323574e+05 1.323574e+05 1.127223e+05 1.012607e+05 1.012607e+05 1.027566e+05 1.027566e+05 1.027566e+05 1.026192e+05 1.027306e+05 7.692388e+04 7.692388e+04 7.714052e+04 7.639959e+04 7.639181e+04 1.221886e+05 1.221886e+05 8.896950e+04 8.896950e+04 8.896950e+04 8.917812e+04 7.807074e+04 7.807074e+04 7.807074e+04 7.825901e+04 1.165430e+05 1.165434e+05 1.165434e+05 9.676222e+04 9.676222e+04 9.676222e+04 9.665693e+04 7.978450e+04 9.920844e+04 9.920844e+04 9.927494e+04 1.242883e+05 1.242883e+05 1.242883e+05 1.316455e+05 1.316455e+05 1.303660e+05 1.303660e+05 1.303660e+05 1.310848e+05 1.329334e+05 1.329334e+05 1.329334e+05 1.327087e+05 1.327087e+05 1.327803e+05 1.283454e+05 1.283454e+05 1.022417e+05 8.552419e+04 8.552419e+04 8.580248e+04 9.702851e+04 1.349304e+05 1.344976e+05 1.349304e+05 1.349304e+05 1.184533e+05 1.184533e+05 1.184533e+05 1.179687e+05 1.179687e+05 1.249589e+05 1.249589e+05 1.252576e+05 1.252576e+05 1.215605e+05 1.215605e+05 1.215605e+05 1.223345e+05 1.223345e+05 1.049922e+05 1.049922e+05 1.049922e+05 1.054268e+05 1.054268e+05 1.298222e+05 1.298222e+05 1.298222e+05 1.286985e+05 1.286985e+05 1.139999e+05 1.139999e+05 1.139999e+05 1.063207e+05 8.034787e+04 8.034787e+04 8.034787e+04 8.133454e+04 8.133454e+04 8.603609e+04 8.603609e+04 8.603609e+04 8.731341e+04 8.731341e+04 9.313616e+04 9.313616e+04 9.313616e+04 9.433959e+04 9.433959e+04 1.257869e+05 1.257869e+05 1.257869e+05 1.073559e+05 1.073559e+05 1.073559e+05 1.079712e+05 1.079712e+05 9.694386e+04 9.852187e+04 9.331184e+04 9.331184e+04 9.331184e+04 9.262404e+04 1.063996e+05 1.063996e+05 1.061830e+05 1.020535e+05 1.020535e+05 1.021090e+05 1.021090e+05 1.027036e+05 1.031717e+05 1.107313e+05 1.088919e+05 1.107313e+05 1.107313e+05 1.057726e+05 1.057726e+05 1.035722e+05 1.131730e+05 1.138035e+05 1.283390e+05 1.283390e+05 1.283390e+05 1.279076e+05 1.281504e+05 9.641923e+04 9.641923e+04 9.641923e+04 9.593052e+04 8.628502e+04 8.819528e+04 7.682549e+04 7.682549e+04 7.682549e+04 7.700560e+04 1.199601e+05 1.201267e+05 1.200241e+05 1.027241e+05 1.027241e+05 1.025574e+05 7.826434e+04 7.934795e+04 7.934795e+04 7.948126e+04 7.972919e+04 8.615545e+04 8.631663e+04 8.629315e+04 9.545894e+04 9.545894e+04 9.545894e+04 9.537048e+04 8.144220e+04 8.144220e+04 8.144220e+04 8.115032e+04 1.030647e+05 8.161800e+04 8.194636e+04 8.194636e+04 1.138401e+05 1.138401e+05 1.138401e+05 9.502700e+04 1.296572e+05 1.296572e+05 9.769370e+04 9.769370e+04 9.769370e+04 1.170133e+05 7.861207e+04 7.861207e+04 9.631042e+04 9.428833e+04 9.428833e+04 9.428833e+04 9.411011e+04 8.722718e+04 7.687082e+04 7.687082e+04 7.703780e+04 7.943276e+04 1.039984e+05 1.039984e+05 8.320568e+04 8.320568e+04 8.320568e+04 8.289167e+04 1.272354e+05 1.274264e+05 1.274264e+05 1.151921e+05 8.109511e+04 8.109511e+04 8.100605e+04 1.291776e+05 1.291776e+05 1.275004e+05 1.204016e+05 9.071684e+04 9.085312e+04 9.085312e+04 1.346191e+05 1.346191e+05 8.980407e+04 1.308383e+05 1.308383e+05 9.234002e+04 9.234002e+04 9.234002e+04 9.192918e+04 8.555160e+04 8.555160e+04 8.825103e+04 8.825103e+04 7.803881e+04 7.693694e+04 1.112759e+05 1.110674e+05 8.213686e+04 8.245005e+04 8.245005e+04 1.052788e+05 1.055067e+05 1.055067e+05 7.740256e+04 7.740256e+04 7.748068e+04 7.748068e+04 1.246711e+05 1.059681e+05 1.343843e+05 1.343843e+05 1.345049e+05 1.349818e+05 1.349818e+05 1.265180e+05 1.261595e+05 1.174719e+05 1.174719e+05 1.174719e+05 1.320691e+05 1.320691e+05 1.320691e+05 1.320661e+05 9.154870e+04 9.154870e+04 1.184586e+05 7.787170e+04 7.787170e+04 9.458640e+04 8.732059e+04 9.840580e+04 9.840580e+04 9.840580e+04 8.042200e+04 8.042200e+04 1.257837e+05 1.254321e+05 1.254321e+05 1.095397e+05 1.097050e+05 1.080517e+05 1.082685e+05 7.677711e+04 1.336833e+05 1.336833e+05 8.463428e+04 8.463428e+04 8.463428e+04 8.452610e+04 1.324207e+05 8.749648e+04 9.355659e+04 9.355659e+04 9.316229e+04 9.053103e+04 9.053103e+04 7.859709e+04 7.859709e+04 7.834298e+04 1.157061e+05 1.157122e+05 1.157122e+05 9.952119e+04 1.340805e+05 1.340805e+05 1.336410e+05 1.336410e+05 1.009617e+05 1.009617e+05 1.009617e+05 8.373861e+04 8.373861e+04 8.373861e+04 1.017795e+05 1.017795e+05 1.280269e+05 1.335595e+05 1.333883e+05 1.328534e+05 1.265218e+05 1.339467e+05 8.012545e+04 1.101300e+05 1.106010e+05 8.423422e+04 8.423422e+04 1.214667e+05 1.189264e+05 8.513853e+04 8.490754e+04 1.003457e+05 1.003457e+05 1.359106e+05 1.352442e+05 1.347161e+05 1.347161e+05 1.347161e+05 1.349908e+05 1.291896e+05 1.284082e+05 1.298000e+05 1.301662e+05 1.093464e+05 1.093464e+05 1.091350e+05 1.266343e+05 8.131682e+04 8.302165e+04 1.209834e+05 1.191155e+05 1.191155e+05 1.191155e+05 9.862064e+04 9.294318e+04 9.294318e+04 9.294318e+04 1.352028e+05 1.294988e+05 1.333641e+05 1.328311e+05 8.997725e+04 1.158449e+05 1.336926e+05 1.342219e+05 7.815620e+04 7.846884e+04 7.846884e+04 1.131837e+05 1.175726e+05 8.037201e+04 7.908914e+04 1.280797e+05 1.273485e+05 1.273485e+05 8.222559e+04 8.222559e+04 8.237930e+04 8.237930e+04 9.180649e+04 1.218019e+05 1.051388e+05 7.630914e+04 1.309068e+05 1.303495e+05 9.813147e+04 1.046016e+05 1.044554e+05 1.044554e+05 1.297059e+05 1.297059e+05 1.293942e+05 1.293942e+05 9.735467e+04 9.779060e+04 8.885561e+04 8.885561e+04 8.875799e+04 9.490055e+04 9.490055e+04 9.441641e+04 9.441641e+04 9.050805e+04 9.050805e+04 7.688853e+04 1.327564e+05 1.327564e+05 1.268969e+05 1.268969e+05 1.268969e+05 1.236009e+05 8.094709e+04 8.094709e+04 8.483206e+04 8.483206e+04 7.933550e+04 7.946495e+04 1.256398e+05 1.319124e+05 7.629775e+04 7.798781e+04 7.798781e+04 1.004821e+05 1.004821e+05 1.010915e+05 7.869572e+04 7.869572e+04 8.777465e+04 8.777465e+04 1.307270e+05 1.307270e+05 1.103027e+05 1.341786e+05 1.173099e+05 1.173099e+05 1.169906e+05 1.052352e+05 1.056114e+05 7.992307e+04 8.261990e+04 9.100414e+04 1.333275e+05 7.682427e+04 9.387888e+04 9.387888e+04 9.387888e+04 1.034233e+05 1.034233e+05 1.034233e+05 1.079933e+05 9.634063e+04 9.634063e+04 9.634063e+04 9.576090e+04 1.344530e+05 1.340187e+05 1.212366e+05 1.208970e+05 1.208970e+05 1.017318e+05 1.017318e+05 1.017318e+05 1.231449e+05 8.164285e+04 1.326214e+05 1.347923e+05 1.347923e+05 1.344373e+05 1.035184e+05 8.677209e+04 8.677209e+04 8.693838e+04 9.107418e+04 9.107418e+04 1.334988e+05 7.704320e+04 9.143200e+04 9.190813e+04 8.566632e+04 1.092114e+05 1.096968e+05 1.317655e+05 9.867263e+04 9.867263e+04 9.867263e+04 8.805562e+04 8.805562e+04 1.251110e+05 1.248457e+05 1.248457e+05 1.304621e+05 1.299979e+05 8.350339e+04 8.338063e+04 1.308831e+05 1.308831e+05 1.308831e+05 1.306461e+05 8.390695e+04 8.390695e+04 8.411710e+04 7.820374e+04 7.820374e+04 1.112947e+05 1.112947e+05 1.112947e+05 1.110784e+05 9.130753e+04 1.314284e+05 1.314284e+05 1.314284e+05 1.313606e+05 1.322485e+05 8.533501e+04 8.533501e+04 8.531169e+04 8.531169e+04 8.297018e+04 1.258297e+05 1.258297e+05 1.009640e+05 1.004884e+05 1.233695e+05 1.233695e+05 8.453603e+04 8.489302e+04 1.293497e+05 1.344976e+05 1.342212e+05 9.022541e+04 9.031963e+04 1.330614e+05 9.640702e+04 9.640702e+04 9.630636e+04 9.630636e+04 9.002221e+04 9.891801e+04 9.947442e+04 1.199618e+05 9.248069e+04 8.433421e+04 8.487887e+04 1.261379e+05 1.261379e+05 1.339756e+05 1.339756e+05 1.339756e+05 1.336504e+05 7.883249e+04 7.883249e+04 7.848868e+04 1.106214e+05 1.105535e+05 1.184740e+05 7.719342e+04 7.745367e+04 7.745367e+04 7.745367e+04 7.746129e+04 9.491234e+04 1.358590e+05 1.301052e+05 1.292175e+05 1.292175e+05 8.101139e+04 8.101139e+04 8.101139e+04 8.069290e+04 1.331794e+05 1.331794e+05 1.285203e+05 1.285203e+05 1.281615e+05 1.213769e+05 1.161079e+05 1.324398e+05 9.284543e+04 9.240553e+04 1.335832e+05 1.336212e+05 1.057695e+05 1.174130e+05 1.174130e+05 1.174130e+05 1.180438e+05 8.131622e+04 9.702471e+04 9.697678e+04 7.887538e+04 7.924245e+04 1.026431e+05 1.029333e+05 8.753611e+04 8.753611e+04 1.192715e+05 8.969909e+04 8.969909e+04 9.028581e+04 8.856568e+04 8.856568e+04 9.525235e+04 8.227320e+04 8.227320e+04 8.172490e+04 1.285189e+05 1.320037e+05 1.320037e+05 9.384065e+04 9.394747e+04 9.394747e+04 1.127491e+05 8.021196e+04 7.788340e+04 7.800684e+04 1.268808e+05 1.268808e+05 1.044134e+05 9.120527e+04 1.122649e+05 1.121786e+05 1.106099e+05 1.272371e+05 1.272371e+05 1.186479e+05 1.186479e+05 1.186479e+05 1.100292e+05 1.101392e+05 1.229728e+05 1.231327e+05 1.231327e+05 1.046664e+05 1.041861e+05 1.041861e+05 1.143065e+05 1.087111e+05 1.093553e+05 1.302952e+05 1.311563e+05 1.311563e+05 1.311563e+05 1.314041e+05 7.980669e+04 8.531526e+04 9.471577e+04 9.512328e+04 8.748987e+04 8.748987e+04 8.748987e+04 9.912840e+04 9.912840e+04 9.912840e+04 9.931955e+04 9.997608e+04 8.010036e+04 8.306412e+04 8.283153e+04 9.757439e+04 9.757439e+04 8.221677e+04 8.274906e+04 8.272833e+04 8.272833e+04 9.630164e+04 8.960378e+04 8.960378e+04 8.935641e+04 1.207471e+05 1.207471e+05 1.201693e+05 9.291890e+04 9.291890e+04 1.067524e+05 8.502826e+04 8.502826e+04 8.454748e+04 8.454748e+04 7.926397e+04 7.926397e+04 7.926397e+04 1.296748e+05 1.291369e+05 1.291369e+05 7.836389e+04 7.836389e+04 7.836389e+04 7.774658e+04 7.908109e+04 9.836206e+04 1.301018e+05 1.301018e+05 1.293979e+05 1.281654e+05 1.281654e+05 1.281654e+05 1.160139e+05 1.160139e+05 1.156181e+05 1.136705e+05 1.136705e+05 1.142336e+05 7.980312e+04 8.090393e+04 8.090393e+04 1.330970e+05 1.323598e+05 9.186614e+04 9.186614e+04 9.186614e+04 1.330204e+05 8.357048e+04 8.357048e+04 8.381151e+04 8.381151e+04 7.957519e+04 7.957519e+04 7.986264e+04 7.986264e+04 7.846070e+04 7.846070e+04 7.827465e+04 1.114218e+05 1.113601e+05 9.227452e+04 1.257664e+05 1.257664e+05 1.257664e+05 9.913274e+04 1.180567e+05 8.158947e+04 1.154958e+05 1.324429e+05 8.811345e+04 1.197165e+05 1.197165e+05 1.329127e+05 1.323247e+05 1.323247e+05 1.128404e+05 1.130199e+05 1.315523e+05 1.315523e+05 1.306128e+05 8.262664e+04 8.262664e+04 1.005506e+05 1.042313e+05 1.267207e+05 1.082785e+05 1.324370e+05 1.315628e+05 1.315628e+05 9.122702e+04 9.742957e+04 9.570839e+04 1.306314e+05 1.308666e+05 8.022215e+04 8.022215e+04 8.841176e+04 8.841176e+04 1.051609e+05 7.925722e+04 7.917981e+04 7.917981e+04 1.285665e+05 9.047512e+04 9.133614e+04 9.563995e+04 9.563995e+04 9.563995e+04 9.493223e+04 9.493223e+04 1.175922e+05 1.267860e+05 1.300394e+05 1.224263e+05 1.224263e+05 1.100004e+05 1.100004e+05 1.101809e+05 1.092110e+05 1.092110e+05 1.316332e+05 1.316332e+05 1.316332e+05 1.306130e+05 1.306130e+05 1.141535e+05 1.141535e+05 1.148165e+05 1.179549e+05 1.167238e+05 1.167238e+05 1.167238e+05 8.569640e+04 1.190168e+05 1.185481e+05 1.185481e+05 8.609272e+04 8.638409e+04 7.827722e+04 8.009778e+04 1.291788e+05 1.131564e+05 1.123984e+05 1.323598e+05 1.234005e+05 1.234005e+05 1.224961e+05 1.224961e+05 1.242830e+05 1.244660e+05 1.294532e+05 8.126647e+04 8.495263e+04 8.495263e+04 8.499646e+04 7.928917e+04 1.256672e+05 7.851429e+04 9.985133e+04 8.695021e+04 1.303298e+05 1.280473e+05 1.280473e+05 1.277826e+05 1.277826e+05 9.462797e+04 1.034160e+05 1.034160e+05 1.034160e+05 9.213726e+04 1.252350e+05 1.065705e+05 8.266098e+04 8.256940e+04 9.015499e+04 7.954054e+04 8.432719e+04 8.314408e+04 8.155340e+04 8.155340e+04 8.155340e+04 1.193473e+05 9.308977e+04 7.993066e+04 1.229270e+05 1.229270e+05 1.222999e+05 1.098341e+05 9.997474e+04 9.997474e+04 1.274997e+05 1.153322e+05 1.158202e+05 8.060397e+04 1.092813e+05 1.092813e+05 1.103859e+05 7.931775e+04 8.148060e+04 8.148060e+04 8.102646e+04 1.038065e+05 1.038065e+05 1.038065e+05 1.114549e+05 9.647592e+04 1.073739e+05 9.513568e+04 9.434001e+04 9.434001e+04 9.231564e+04 8.752819e+04 1.194196e+05 1.194196e+05 1.244216e+05 9.077619e+04 9.077619e+04 9.077619e+04 9.042061e+04 1.299882e+05 1.130494e+05 1.284797e+05 1.272216e+05 1.021182e+05 1.177524e+05 1.181359e+05 1.281914e+05 1.121652e+05 1.121731e+05 8.028683e+04 1.118691e+05 1.233700e+05 1.233700e+05 1.233700e+05 1.314334e+05 1.309979e+05 1.227371e+05 1.271539e+05 1.314334e+05 8.265603e+04 8.143550e+04 8.850408e+04 1.155435e+05 1.141722e+05 1.084084e+05 8.390014e+04 8.390014e+04 8.390014e+04 9.158637e+04 1.269686e+05 1.269686e+05 1.294992e+05 1.294992e+05 1.106431e+05 8.226121e+04 1.263571e+05 1.009523e+05 1.009523e+05 1.009523e+05 9.745241e+04 1.254767e+05 1.254767e+05 1.004756e+05 1.075333e+05 1.160709e+05 8.422860e+04 1.234683e+05 1.234683e+05 1.234683e+05 8.305843e+04 8.305843e+04 8.305843e+04 1.312074e+05 1.071978e+05 1.277736e+05 1.277736e+05 8.181887e+04 8.181887e+04 8.181887e+04 8.236004e+04 9.640093e+04 9.640093e+04 9.640093e+04 1.202840e+05 1.202840e+05 1.202840e+05 1.225131e+05 1.023584e+05 1.021679e+05 1.036836e+05 1.036836e+05 1.036836e+05 9.841690e+04 9.872906e+04 9.872906e+04 1.194743e+05 1.178960e+05 1.300329e+05 1.019151e+05 1.015075e+05 8.527187e+04 8.734815e+04 1.122748e+05 9.044938e+04 8.470419e+04 8.470419e+04 8.402345e+04 1.248252e+05 1.105336e+05 9.202084e+04 9.156896e+04 1.000332e+05 1.121596e+05 9.550156e+04 9.550156e+04 1.182040e+05 1.197572e+05 1.191348e+05 8.955091e+04 1.070984e+05 1.257916e+05 8.571901e+04 8.571901e+04 8.328870e+04 8.328870e+04 1.212003e+05 1.212003e+05 1.212003e+05 1.198107e+05 1.198107e+05 1.119268e+05 1.225100e+05 1.221745e+05 1.221745e+05 9.028344e+04 1.091949e+05 1.103100e+05 1.143954e+05 1.143954e+05 1.158630e+05 1.201802e+05 8.593962e+04 8.593962e+04 1.187190e+05 1.181203e+05 8.527187e+04 8.527187e+04 9.209282e+04 9.459922e+04 9.459922e+04 9.459922e+04 1.053413e+05 8.910787e+04 8.939235e+04 1.007155e+05 1.007155e+05 1.007155e+05 1.031071e+05 1.040441e+05 1.105780e+05 1.024719e+05 9.149112e+04 1.144546e+05 1.144546e+05 1.144546e+05 1.135502e+05 9.397395e+04 1.193659e+05 1.193659e+05 1.193659e+05 1.164966e+05 8.703570e+04 1.176496e+05 1.176496e+05 1.057065e+05 8.684158e+04 8.684158e+04 8.684158e+04 8.660686e+04 8.660686e+04 1.238910e+05 1.222436e+05 1.222436e+05 8.785598e+04 9.331842e+04 9.331842e+04 1.130602e+05 8.831813e+04 8.831813e+04 8.831813e+04 8.980809e+04 8.980809e+04 8.980809e+04 1.034532e+05 1.034532e+05 1.041811e+05 9.764926e+04 8.788056e+04 8.788056e+04 1.029631e+05 1.079629e+05 1.079629e+05 1.067192e+05 1.067192e+05 1.171186e+05 9.575948e+04 9.609003e+04 9.609003e+04 9.517823e+04 9.517823e+04 1.004278e+05 1.004278e+05 1.018967e+05 1.114475e+05 1.114475e+05 1.103568e+05 1.103568e+05 9.812136e+04 1.119177e+05 1.200420e+05 1.195181e+05 1.195181e+05 1.107412e+05 1.060870e+05 9.985901e+04 1.181408e+05 1.181408e+05 1.118376e+05 1.195457e+05 1.195457e+05 8.851821e+04 8.851821e+04 1.134115e+05 1.165651e+05 1.165651e+05 1.165651e+05 1.150665e+05 1.150665e+05 1.175582e+05 1.081963e+05 1.081963e+05 1.153649e+05 1.153649e+05 1.142131e+05 9.982961e+04 1.054290e+05 9.272053e+04 9.209697e+04 1.173475e+05 1.173475e+05 9.381493e+04 9.381493e+04 1.032338e+05 1.032338e+05 8.960908e+04 1.066434e+05 1.066434e+05 1.054368e+05 9.790307e+04 9.790307e+04 1.129175e+05 1.129175e+05 1.117176e+05 1.085297e+05 1.085297e+05 1.004108e+05 1.004108e+05 1.044554e+05 1.044554e+05 1.023026e+05 1.024753e+05 1.024753e+05 9.545927e+04 9.527866e+04 9.952119e+04 1.079243e+05 1.080337e+05 1.158448e+05 1.154685e+05 1.128664e+05 1.128664e+05 1.156978e+05 9.720061e+04 9.720061e+04 9.580867e+04 1.098736e+05 1.154615e+05 1.168026e+05 1.168026e+05 1.020828e+05 1.020828e+05 1.132844e+05 1.152221e+05 9.972184e+04 9.972184e+04 1.120922e+05 1.120922e+05 9.436324e+04 9.666569e+04 9.666569e+04 9.666569e+04 9.549111e+04 9.549111e+04 1.117584e+05 1.106525e+05 1.086572e+05 1.086572e+05 1.101849e+05 1.101849e+05 1.117013e+05 9.886196e+04 1.144032e+05 1.124853e+05 1.059485e+05 1.041028e+05 1.078835e+05 1.057297e+05 1.099254e+05 1.008753e+05 1.048801e+05 1.071130e+05 1.059325e+05 1.064429e+05 1.094074e+05 1.088919e+05 1.024279e+05 1.024279e+05 1.059020e+05 1.053597e+05 1.077851e+05 1.015737e+05 1.020259e+05 1.064579e+05 1.064579e+05 1.063519e+05 1.063519e+05 1.033837e+05 1.033837e+05 1.056074e+05 1.046553e+05 1.046553e+05 1.046553e+05 1.046774e+05 1.046774e+05 9.912334e+04 9.912334e+04 9.912334e+04 9.586539e+04 9.586539e+04 9.097892e+04 9.165420e+04 1.009092e+05 9.097892e+04 9.097892e+04 9.028588e+04 9.428772e+04 9.633789e+04 9.736427e+04 9.777061e+04 9.787237e+04 9.945765e+04 9.958966e+04 1.006250e+05 1.006250e+05 1.031072e+05 8.973638e+04 1.009092e+05 1.152751e+05 1.108023e+05 1.056194e+05 1.152592e+05 1.152592e+05 1.130970e+05 1.128914e+05 1.130970e+05 1.033186e+05 1.119064e+05 1.043270e+05 1.013784e+05 1.015685e+05 1.015685e+05 1.048745e+05 1.359106e+05 1.359106e+05 1.358590e+05 1.355735e+05 1.354441e+05 1.356948e+05 1.353909e+05 1.348085e+05 1.346722e+05 1.356252e+05 1.349183e+05 1.345863e+05 1.346061e+05 1.340263e+05 1.343643e+05 1.334425e+05 1.339949e+05 1.332143e+05 1.331795e+05 1.326412e+05 1.330221e+05 1.325433e+05 1.323591e+05 1.321986e+05 1.319140e+05 1.313250e+05 1.308784e+05 1.320116e+05 1.310736e+05 1.301834e+05 1.302298e+05 1.299126e+05 1.296415e+05 1.288612e+05 1.283517e+05 1.283250e+05 1.281413e+05 1.275868e+05 1.270923e+05 1.267561e+05 1.265180e+05 1.260246e+05 1.257837e+05 1.252660e+05 1.249002e+05 1.245922e+05 1.241334e+05 1.236576e+05 1.231202e+05 1.227324e+05 1.223402e+05 1.219527e+05 1.217050e+05 1.212218e+05 1.205712e+05 1.202009e+05 1.196580e+05 1.192471e+05 1.187999e+05 1.183550e+05 1.179250e+05 1.175387e+05 1.169571e+05 1.165430e+05 1.161103e+05 1.157061e+05 1.150933e+05 1.146342e+05 1.142015e+05 1.138188e+05 1.132815e+05 1.128523e+05 1.123869e+05 1.119484e+05 1.113571e+05 1.109018e+05 1.104191e+05 1.099425e+05 1.095397e+05 1.091346e+05 1.085288e+05 1.080517e+05 1.075452e+05 1.070952e+05 1.066643e+05 1.061975e+05 1.057245e+05 1.052788e+05 1.047209e+05 1.042409e+05 1.037963e+05 1.033316e+05 1.028606e+05 1.024323e+05 1.019585e+05 1.014639e+05 1.010057e+05 1.005480e+05 1.000459e+05 9.944829e+04 9.899646e+04 9.855528e+04 9.813184e+04 9.760545e+04 9.718110e+04 9.678031e+04 9.638727e+04 9.593732e+04 9.550424e+04 9.513664e+04 9.475267e+04 9.434237e+04 9.393465e+04 9.336634e+04 9.292020e+04 9.246049e+04 9.205512e+04 9.166798e+04 9.122317e+04 9.071684e+04 9.032505e+04 8.993497e+04 8.954119e+04 8.921082e+04 8.884573e+04 8.841086e+04 8.803885e+04 8.763530e+04 8.728570e+04 8.701113e+04 8.672475e+04 8.630430e+04 8.594127e+04 8.557378e+04 8.531335e+04 8.491000e+04 8.459522e+04 8.432684e+04 8.397980e+04 8.368006e+04 8.339080e+04 8.300774e+04 8.271164e+04 8.242094e+04 8.213686e+04 8.190833e+04 8.161800e+04 8.139865e+04 8.114009e+04 8.097181e+04 8.075809e+04 8.047070e+04 8.024696e+04 8.004779e+04 7.981298e+04 7.960410e+04 7.943276e+04 7.918843e+04 7.899296e+04 7.877149e+04 7.858411e+04 7.835730e+04 7.819590e+04 7.805628e+04 7.789684e+04 7.776136e+04 7.758018e+04 7.741948e+04 7.723444e+04 7.711848e+04 7.689381e+04 7.672663e+04 7.658233e+04 7.644630e+04 7.639639e+04 7.629607e+04 7.623460e+04 7.616582e+04 7.603988e+04 7.593789e+04 7.595743e+04 1.025532e+05 1.025532e+05 1.025532e+05 1.038987e+05 1.038987e+05 1.038987e+05 1.042125e+05 1.039395e+05 1.057726e+05 1.048009e+05 1.075617e+05 1.075617e+05 1.075617e+05 1.075598e+05 9.819897e+04 9.819897e+04 9.819897e+04 9.817801e+04 9.863125e+04 1.252855e+05 1.252855e+05 1.252855e+05 1.252157e+05 1.249613e+05 1.249613e+05 1.249613e+05 1.243554e+05 1.007712e+05 1.007712e+05 1.007712e+05 1.012509e+05 1.016338e+05 1.016552e+05 8.573223e+04 8.573223e+04 8.573223e+04 8.505206e+04 8.505206e+04 1.242372e+05 1.242372e+05 1.242372e+05 1.237762e+05 8.170420e+04 8.170420e+04 8.170420e+04 8.120095e+04 8.120095e+04 1.339244e+05 1.339244e+05 1.339244e+05 1.113008e+05 1.113008e+05 1.113008e+05 1.115727e+05 1.068677e+05 1.068677e+05 1.068677e+05 1.222897e+05 1.222897e+05 1.222897e+05 1.223596e+05 8.696350e+04 8.696350e+04 8.695933e+04 8.695933e+04 1.129899e+05 1.129899e+05 1.133665e+05 1.230961e+05 1.230961e+05 1.230961e+05 1.235480e+05 1.235480e+05 7.896095e+04 7.896095e+04 7.896095e+04 7.945627e+04 7.945627e+04 1.000506e+05 1.000506e+05 1.000506e+05 9.941102e+04 9.941102e+04 1.260527e+05 1.260527e+05 1.136714e+05 1.136714e+05 1.136714e+05 1.137790e+05 1.069167e+05 1.069167e+05 1.069167e+05 1.067474e+05 1.067865e+05 1.146824e+05 1.146824e+05 1.146824e+05 1.120478e+05 1.120478e+05 1.122374e+05 1.283250e+05 1.283143e+05 1.283143e+05 7.644630e+04 7.674686e+04 7.674686e+04 1.064441e+05 8.884573e+04 8.910618e+04 1.067903e+05 1.037399e+05 1.037399e+05 1.037399e+05 1.042239e+05 9.974355e+04 1.037668e+05 1.037668e+05 1.037668e+05 1.046254e+05 1.046254e+05 9.766735e+04 9.766735e+04 9.766735e+04 9.828777e+04 9.249409e+04 9.249409e+04 9.249409e+04 9.233427e+04 1.244328e+05 1.242393e+05 1.235343e+05 1.260453e+05 1.260453e+05 1.052639e+05 1.052639e+05 1.052639e+05 1.057193e+05 1.166953e+05 1.166953e+05 1.166953e+05 1.172855e+05 1.172855e+05 1.167792e+05 8.957140e+04 8.957140e+04 8.957140e+04 8.924622e+04 9.257032e+04 9.257032e+04 9.257032e+04 9.313129e+04 9.344017e+04 1.128388e+05 1.128388e+05 1.128388e+05 1.129147e+05 8.028683e+04 7.892049e+04 9.729513e+04 9.729513e+04 9.729513e+04 9.782046e+04 8.630559e+04 8.630559e+04 8.630559e+04 8.656971e+04 1.203722e+05 1.203722e+05 1.203722e+05 1.211360e+05 1.211360e+05 8.344925e+04 8.344925e+04 8.344925e+04 8.373963e+04 1.201181e+05 1.201181e+05 1.201181e+05 1.198965e+05 1.243390e+05 1.243390e+05 1.243390e+05 1.242768e+05 8.957672e+04 8.957672e+04 8.957181e+04 1.072941e+05 1.072941e+05 1.085164e+05 1.085164e+05 1.085164e+05 1.046779e+05 1.046779e+05 1.046779e+05 1.044565e+05 7.660385e+04 7.660385e+04 7.660385e+04 7.651528e+04 7.651528e+04 1.314477e+05 1.314477e+05 1.314477e+05 1.311161e+05 1.311161e+05 1.075712e+05 1.193065e+05 1.193065e+05 1.196687e+05 7.621432e+04 7.621432e+04 7.621432e+04 7.619565e+04 7.996323e+04 7.996323e+04 8.019882e+04 8.019882e+04 1.267074e+05 1.267074e+05 1.270218e+05 1.230991e+05 1.230991e+05 7.891426e+04 7.891426e+04 7.915488e+04 7.915488e+04 1.214380e+05 1.214380e+05 1.214380e+05 1.211989e+05 1.065876e+05 1.062879e+05 1.127645e+05 1.127645e+05 1.127645e+05 1.124780e+05 1.157522e+05 1.157522e+05 1.157522e+05 1.152284e+05 1.152284e+05 7.775007e+04 7.775007e+04 7.775007e+04 7.769790e+04 7.769790e+04 1.138952e+05 1.143868e+05 1.334865e+05 1.334865e+05 1.334865e+05 1.334068e+05 8.060073e+04 8.060073e+04 8.060073e+04 8.015516e+04 8.015516e+04 8.061799e+04 8.081841e+04 1.079312e+05 1.079312e+05 1.079312e+05 1.074461e+05 1.074461e+05 1.020631e+05 1.022654e+05 1.022654e+05 8.720876e+04 8.720876e+04 8.720876e+04 8.740812e+04 8.740812e+04 8.960988e+04 8.960988e+04 8.960988e+04 8.916627e+04 8.916627e+04 8.249798e+04 8.249798e+04 8.