<?xml version="1.0"?>
 <VTKFile type="UnstructuredGrid" version="1.0" byte_order="LittleEndian" header_type="UInt64">
  <UnstructuredGrid>
    <FieldData>
     <DataArray type="Float64" Name="TimeValue" NumberOfTuples="1" format="ascii">
0.00021
     </DataArray>
    </FieldData>
   <Piece NumberOfPoints="3632" NumberOfCells="3379">
    <PointData>
     <DataArray type="Float64" Name="pointP" format="ascii">
7.215481e+05 7.215481e+05 7.195762e+05 7.186787e+05 7.182458e+05 7.213170e+05 7.104062e+05 7.059546e+05 7.050454e+05 7.060917e+05 6.984515e+05 6.926179e+05 6.887350e+05 6.858401e+05 6.850823e+05 6.755889e+05 6.734079e+05 6.702219e+05 6.669833e+05 6.626958e+05 6.644875e+05 6.561373e+05 6.501349e+05 6.437225e+05 6.339812e+05 6.309860e+05 6.260772e+05 6.257299e+05 6.142296e+05 6.078941e+05 6.103165e+05 5.990068e+05 5.887038e+05 5.792194e+05 5.713198e+05 5.720467e+05 5.647842e+05 5.557100e+05 5.488207e+05 5.452876e+05 5.400618e+05 5.286828e+05 5.241581e+05 5.129809e+05 5.075509e+05 5.009916e+05 4.913581e+05 4.822272e+05 4.721516e+05 4.655170e+05 4.576442e+05 4.500660e+05 4.433121e+05 4.317375e+05 4.210003e+05 4.137693e+05 4.036897e+05 3.965306e+05 3.882716e+05 3.802993e+05 3.727725e+05 3.638336e+05 3.537412e+05 3.473366e+05 3.398904e+05 3.304816e+05 3.197682e+05 3.127645e+05 3.053439e+05 2.969115e+05 2.870601e+05 2.799810e+05 2.717431e+05 2.633437e+05 2.536042e+05 2.461621e+05 2.378081e+05 2.296410e+05 2.225361e+05 2.144175e+05 2.047753e+05 1.968861e+05 1.886676e+05 1.812490e+05 1.737288e+05 1.659161e+05 1.582426e+05 1.507508e+05 1.418193e+05 1.342655e+05 1.271741e+05 1.197597e+05 1.125402e+05 1.058011e+05 9.863479e+04 9.153780e+04 8.459793e+04 7.801523e+04 7.078310e+04 6.196166e+04 5.542960e+04 4.918067e+04 4.333390e+04 3.591742e+04 2.989816e+04 2.414432e+04 1.887748e+04 1.290687e+04 6.958290e+03 1.625156e+03 -2.081363e+03 -9.655294e+03 -1.377386e+04 -2.167803e+04 -2.734446e+04 -3.264127e+04 -3.750132e+04 -4.225543e+04 -4.769034e+04 -5.428638e+04 -5.867147e+04 -6.292620e+04 -6.640641e+04 -7.040819e+04 -7.460794e+04 -7.908262e+04 -8.326096e+04 -8.637331e+04 -8.853123e+04 -9.292930e+04 -9.625567e+04 -1.001096e+05 -1.046496e+05 -1.071125e+05 -1.109781e+05 -1.158093e+05 -1.170619e+05 -1.209309e+05 -1.228369e+05 -1.247554e+05 -1.288962e+05 -1.324424e+05 -1.350822e+05 -1.361089e+05 -1.364954e+05 -1.413492e+05 -1.404523e+05 -1.427401e+05 -1.423239e+05 -1.463920e+05 -1.493989e+05 -1.527717e+05 -1.538917e+05 -1.585887e+05 -1.634130e+05 -1.590870e+05 -1.621553e+05 -1.646731e+05 -1.658314e+05 -1.695977e+05 -1.657601e+05 -1.675901e+05 -1.640754e+05 -1.608216e+05 -1.617412e+05 -1.683391e+05 -1.734999e+05 -1.753781e+05 -1.725847e+05 -1.814665e+05 -1.824209e+05 -1.769969e+05 -1.745467e+05 -1.710436e+05 -1.775062e+05 -1.787097e+05 -1.831525e+05 -1.841632e+05 -1.756160e+05 -1.744518e+05 -2.091543e+05 1.099042e+05 1.099042e+05 1.099042e+05 1.284729e+05 1.284729e+05 1.284729e+05 1.327239e+05 1.290927e+05 1.537464e+05 1.402324e+05 1.779453e+05 1.779453e+05 1.779453e+05 1.778795e+05 4.886723e+04 4.886723e+04 4.886723e+04 4.848220e+04 5.478233e+04 4.363099e+05 4.363099e+05 4.363099e+05 4.343628e+05 4.340910e+05 4.340910e+05 4.340910e+05 4.239623e+05 8.337194e+04 8.337194e+04 8.337194e+04 9.020497e+04 9.574582e+04 9.609185e+04 -1.250159e+05 -1.250159e+05 -1.250159e+05 -1.342255e+05 -1.342255e+05 4.399882e+05 4.399882e+05 4.399882e+05 4.314722e+05 -1.752327e+05 -1.752327e+05 -1.752327e+05 -1.813781e+05 -1.813781e+05 6.276698e+05 6.276698e+05 6.276698e+05 2.453083e+05 2.453083e+05 2.453083e+05 2.495532e+05 1.725864e+05 1.725864e+05 1.725864e+05 4.365953e+05 4.365953e+05 4.365953e+05 4.513247e+05 -9.624820e+04 -9.624820e+04 -1.021140e+05 -1.021140e+05 2.797717e+05 2.797717e+05 2.851864e+05 4.411382e+05 4.411382e+05 4.411382e+05 4.628987e+05 4.628987e+05 -2.067893e+05 -2.067893e+05 -2.067893e+05 -2.047694e+05 -2.047694e+05 7.457096e+04 7.457096e+04 7.457096e+04 6.553390e+04 6.553390e+04 4.499606e+05 4.499606e+05 2.794833e+05 2.794833e+05 2.794833e+05 2.800452e+05 1.761601e+05 1.761601e+05 1.761601e+05 1.727267e+05 1.726802e+05 3.046377e+05 3.046377e+05 3.046377e+05 2.596427e+05 2.596427e+05 2.614584e+05 5.720467e+05 5.589311e+05 5.589311e+05 -1.710436e+05 -2.034838e+05 -2.034838e+05 1.691985e+05 -7.460794e+04 -7.321355e+04 1.675120e+05 1.257760e+05 1.257760e+05 1.257760e+05 1.324519e+05 7.036111e+04 1.259752e+05 1.259752e+05 1.259752e+05 1.377984e+05 1.377984e+05 4.072934e+04 4.072934e+04 4.072934e+04 4.947706e+04 -3.154855e+04 -3.154855e+04 -3.154855e+04 -3.357027e+04 4.216597e+05 4.179635e+05 4.068425e+05 4.463282e+05 4.463282e+05 1.475105e+05 1.475105e+05 1.475105e+05 1.538605e+05 3.141390e+05 3.141390e+05 3.141390e+05 3.219440e+05 3.219440e+05 3.137637e+05 -7.345538e+04 -7.345538e+04 -7.345538e+04 -7.766291e+04 -3.283086e+04 -3.283086e+04 -3.283086e+04 -2.510003e+04 -2.111469e+04 2.570889e+05 2.570889e+05 2.570889e+05 2.577681e+05 -2.022028e+05 -2.202817e+05 3.385821e+04 3.385821e+04 3.385821e+04 4.143203e+04 -1.174063e+05 -1.174063e+05 -1.174063e+05 -1.137789e+05 3.738399e+05 3.738399e+05 3.738399e+05 3.860344e+05 3.860344e+05 -1.525645e+05 -1.525645e+05 -1.525645e+05 -1.484362e+05 3.877760e+05 3.877760e+05 3.877760e+05 3.805813e+05 4.737548e+05 4.737548e+05 4.737548e+05 4.791263e+05 -7.099616e+04 -7.099616e+04 -6.946837e+04 1.812656e+05 1.812656e+05 1.991183e+05 1.991183e+05 1.991183e+05 1.401555e+05 1.401555e+05 1.401555e+05 1.373161e+05 -2.097971e+05 -2.097971e+05 -2.097971e+05 -2.133393e+05 -2.133393e+05 6.064348e+05 6.064348e+05 6.064348e+05 5.941082e+05 5.941082e+05 1.856040e+05 3.926800e+05 3.926800e+05 3.974601e+05 -2.069219e+05 -2.069219e+05 -2.069219e+05 -2.112125e+05 -1.702237e+05 -1.702237e+05 -1.798068e+05 -1.798068e+05 5.352954e+05 5.352954e+05 5.361621e+05 4.639690e+05 4.639690e+05 -1.775501e+05 -1.775501e+05 -1.903090e+05 -1.903090e+05 4.274948e+05 4.274948e+05 4.274948e+05 4.223465e+05 1.692103e+05 1.641928e+05 2.648569e+05 2.648569e+05 2.648569e+05 2.619998e+05 3.130669e+05 3.130669e+05 3.130669e+05 3.051122e+05 3.051122e+05 -2.236509e+05 -2.236509e+05 -2.236509e+05 -2.271105e+05 -2.271105e+05 2.853012e+05 2.922847e+05 6.217244e+05 6.217244e+05 6.217244e+05 6.166562e+05 -1.888789e+05 -1.888789e+05 -1.888789e+05 -1.946886e+05 -1.946886e+05 -1.890251e+05 -1.864688e+05 1.875554e+05 1.875554e+05 1.875554e+05 1.799450e+05 1.799450e+05 1.018750e+05 1.045659e+05 1.045659e+05 -1.042671e+05 -1.042671e+05 -1.042671e+05 -1.023259e+05 -1.023259e+05 -7.277407e+04 -7.277407e+04 -7.277407e+04 -7.897808e+04 -7.897808e+04 -1.664535e+05 -1.664535e+05 -1.605908e+05 -1.605908e+05 1.783708e+05 1.783708e+05 1.713100e+05 -1.510712e+05 -1.510712e+05 -1.542348e+05 -1.542348e+05 -8.150690e+04 -8.150690e+04 -8.150690e+04 -6.864238e+04 4.967250e+04 4.967250e+04 4.967250e+04 3.507302e+04 3.507302e+04 3.869376e+05 4.140280e+05 3.387495e+05 1.315277e+05 1.315277e+05 1.315277e+05 1.418817e+05 1.418817e+05 1.671087e+05 1.671087e+05 1.723719e+05 1.118276e+05 1.118276e+05 1.106504e+05 1.012595e+05 1.838040e+05 1.838040e+05 1.838040e+05 1.738928e+05 1.738928e+05 1.738928e+05 2.156309e+05 2.156309e+05 2.156309e+05 4.674955e+04 5.445912e+04 1.462640e+05 2.193514e+05 2.193514e+05 2.193514e+05 2.092583e+05 2.530943e+05 2.530943e+05 2.530943e+05 2.589631e+05 2.589631e+05 2.589631e+05 2.526919e+05 -4.685272e+04 -4.685272e+04 -4.685272e+04 5.484922e+04 5.484922e+04 5.484922e+04 2.045367e+05 2.045367e+05 2.045367e+05 3.746562e+05 3.746562e+05 3.747716e+05 -9.905514e+04 -4.326280e+04 -4.326280e+04 4.505541e+05 4.505541e+05 4.505541e+05 4.702613e+05 4.702613e+05 1.458563e+05 1.458563e+05 -2.280243e+05 -2.248875e+05 -2.202817e+05 5.067907e+05 5.067907e+05 5.067907e+05 4.977529e+05 -1.758302e+04 -1.758302e+04 -1.758302e+04 1.665176e+05 1.654482e+05 1.605121e+05 4.906947e+04 4.906947e+04 4.906947e+04 -1.110429e+05 -1.110429e+05 -1.110429e+05 -1.129608e+05 -1.167650e+05 1.871635e+05 1.871635e+05 1.871635e+05 5.752939e+05 5.752939e+05 5.752939e+05 5.731506e+05 3.165395e+05 3.165395e+05 3.165395e+05 3.127175e+05 5.880758e+05 5.880758e+05 5.880758e+05 2.674982e+05 9.004558e+04 9.004558e+04 1.109768e+05 1.109768e+05 1.109768e+05 1.089399e+05 1.107254e+05 -2.332725e+05 -2.332725e+05 -2.339558e+05 -2.196468e+05 -2.134275e+05 4.213067e+05 4.213067e+05 -7.915669e+04 -7.915669e+04 -7.915669e+04 -7.749863e+04 -1.892050e+05 -1.892050e+05 -1.892050e+05 -1.952560e+05 3.473366e+05 3.369244e+05 3.369244e+05 2.496026e+04 2.496026e+04 2.496026e+04 2.375929e+04 -1.690419e+05 5.883392e+04 5.883392e+04 6.036422e+04 4.576076e+05 4.576076e+05 4.576076e+05 6.142164e+05 6.142164e+05 5.805264e+05 5.805264e+05 5.805264e+05 6.089315e+05 6.352776e+05 6.352776e+05 6.352776e+05 6.301871e+05 6.301871e+05 6.526685e+05 5.443871e+05 5.443871e+05 1.030302e+05 -1.113429e+05 -1.113429e+05 -1.089267e+05 2.873789e+04 6.552351e+05 6.289759e+05 6.552351e+05 6.552351e+05 3.660932e+05 3.660932e+05 3.660932e+05 3.511111e+05 3.511111e+05 4.528880e+05 4.528880e+05 4.639032e+05 4.639032e+05 4.000447e+05 4.000447e+05 4.000447e+05 4.136880e+05 4.136880e+05 1.441008e+05 1.441008e+05 1.441008e+05 1.502423e+05 1.502423e+05 5.150228e+05 5.150228e+05 5.150228e+05 4.930312e+05 4.930312e+05 2.756592e+05 2.756592e+05 2.756592e+05 1.627933e+05 -1.994398e+05 -1.994398e+05 -1.994398e+05 -1.865950e+05 -1.865950e+05 -1.204580e+05 -1.204580e+05 -1.204580e+05 -1.029192e+05 -1.029192e+05 -2.984166e+04 -2.984166e+04 -2.984166e+04 -2.545883e+04 -2.545883e+04 4.408362e+05 4.408362e+05 4.408362e+05 1.767156e+05 1.767156e+05 1.767156e+05 1.855912e+05 1.855912e+05 2.952298e+04 5.211020e+04 -1.974563e+04 -1.974563e+04 -1.974563e+04 -2.921282e+04 1.622501e+05 1.622501e+05 1.593456e+05 1.023231e+05 1.023231e+05 1.029698e+05 1.029698e+05 1.113032e+05 1.178612e+05 2.202812e+05 1.960802e+05 2.202812e+05 2.202812e+05 1.537464e+05 1.537464e+05 1.240166e+05 2.551743e+05 2.635845e+05 4.810598e+05 4.810598e+05 4.810598e+05 4.739201e+05 4.792991e+05 2.124825e+04 2.124825e+04 2.124825e+04 1.385113e+04 -1.176604e+05 -9.160543e+04 -2.387892e+05 -2.387892e+05 -2.387892e+05 -2.367363e+05 3.879558e+05 3.959400e+05 3.982248e+05 1.108336e+05 1.108336e+05 1.084774e+05 -1.885941e+05 -1.862024e+05 -1.862024e+05 -1.855197e+05 -1.916960e+05 -1.050901e+05 -1.076069e+05 -1.110994e+05 6.997063e+03 6.997063e+03 6.997063e+03 6.051134e+03 -1.580990e+05 -1.580990e+05 -1.580990e+05 -1.505765e+05 1.157151e+05 -1.404523e+05 -1.560112e+05 -1.560112e+05 2.913299e+05 2.913299e+05 2.913299e+05 2.261716e+02 5.915881e+05 5.915881e+05 3.821764e+04 3.821764e+04 3.821764e+04 3.489336e+05 -1.787583e+05 -1.787583e+05 1.874269e+04 -9.639928e+03 -9.639928e+03 -9.639928e+03 -1.174734e+04 -9.291815e+04 -1.885954e+05 -1.885954e+05 -1.939375e+05 -1.621553e+05 1.298987e+05 1.298987e+05 -1.442242e+05 -1.442242e+05 -1.442242e+05 -1.387110e+05 5.395399e+05 5.336364e+05 5.336364e+05 3.168573e+05 -1.652409e+05 -1.652409e+05 -1.678477e+05 5.707861e+05 5.707861e+05 5.322317e+05 4.030975e+05 -5.428638e+04 -5.475148e+04 -5.475148e+04 6.851341e+05 6.851341e+05 -6.684273e+04 6.140667e+05 6.140667e+05 -3.508065e+04 -3.508065e+04 -3.508065e+04 -3.957863e+04 -1.183854e+05 -1.183854e+05 -8.296332e+04 -8.296332e+04 -1.942186e+05 -2.078287e+05 2.468526e+05 2.468431e+05 -1.364954e+05 -1.491608e+05 -1.491608e+05 1.507508e+05 1.535597e+05 1.535597e+05 -1.830463e+05 -1.830463e+05 -2.032399e+05 -2.032399e+05 4.848949e+05 1.606879e+05 6.886886e+05 6.886886e+05 6.842449e+05 7.009415e+05 7.009415e+05 5.400618e+05 5.137109e+05 3.535191e+05 3.535191e+05 3.535191e+05 6.255428e+05 6.255428e+05 6.255428e+05 6.264032e+05 -4.531058e+04 -4.531058e+04 3.771814e+05 -2.005128e+05 -2.005128e+05 -6.764210e+03 -9.828497e+04 4.815504e+04 4.815504e+04 4.815504e+04 -1.588999e+05 -1.588999e+05 5.241581e+05 4.994529e+05 4.994529e+05 2.225361e+05 2.238772e+05 1.968861e+05 1.992993e+05 -2.193440e+05 6.641497e+05 6.641497e+05 -1.274302e+05 -1.274302e+05 -1.274302e+05 -1.301430e+05 6.204265e+05 -8.973003e+04 -1.939630e+04 -1.939630e+04 -2.452970e+04 -5.911954e+04 -5.911954e+04 -1.913313e+05 -1.913313e+05 -1.747693e+05 3.304816e+05 3.232237e+05 3.232237e+05 6.405238e+04 6.744339e+05 6.744339e+05 6.443047e+05 6.443047e+05 8.484915e+04 8.484915e+04 8.484915e+04 -1.379555e+05 -1.379555e+05 -1.379555e+05 9.669635e+04 9.669635e+04 5.320946e+05 6.716173e+05 6.595644e+05 6.256137e+05 5.192749e+05 6.477346e+05 -1.857034e+05 2.308503e+05 2.358987e+05 -1.336224e+05 -1.336224e+05 4.225151e+05 3.749394e+05 -1.189540e+05 -1.248217e+05 7.587493e+04 7.587493e+04 7.215481e+05 6.995759e+05 6.735556e+05 6.735556e+05 6.735556e+05 7.011577e+05 5.621707e+05 5.355940e+05 5.965957e+05 5.903820e+05 2.154049e+05 2.154049e+05 2.113799e+05 5.094330e+05 -1.695294e+05 -1.494888e+05 4.137151e+05 3.702182e+05 3.702182e+05 3.702182e+05 5.147533e+04 -2.781374e+04 -2.781374e+04 -2.781374e+04 6.779034e+05 5.746975e+05 6.302469e+05 6.028605e+05 -6.618799e+04 3.231294e+05 6.177102e+05 6.436172e+05 -2.060278e+05 -2.155607e+05 -2.155607e+05 2.764883e+05 3.523145e+05 -1.808644e+05 -1.965672e+05 5.237634e+05 5.010219e+05 5.010219e+05 -1.648423e+05 -1.648423e+05 -1.665054e+05 -1.665054e+05 -4.257985e+04 4.219132e+05 1.473939e+05 -2.232002e+05 5.972327e+05 5.813768e+05 4.475975e+04 1.388162e+05 1.364652e+05 1.364652e+05 5.599201e+05 5.599201e+05 5.419775e+05 5.419775e+05 3.384937e+04 4.029028e+04 -8.209016e+04 -8.209016e+04 -8.170037e+04 -4.853422e+02 -4.853422e+02 -7.047271e+03 -7.047271e+03 -6.056240e+04 -6.056240e+04 -2.350238e+05 5.947144e+05 5.947144e+05 4.990962e+05 4.990962e+05 4.990962e+05 4.522892e+05 -1.761251e+05 -1.761251e+05 -1.324553e+05 -1.324553e+05 -2.038345e+05 -2.010640e+05 4.953480e+05 6.085386e+05 -1.990963e+05 -2.169109e+05 -2.169109e+05 7.834414e+04 7.834414e+04 8.718596e+04 -2.083547e+05 -2.083547e+05 -9.461098e+04 -9.461098e+04 5.702895e+05 5.702895e+05 2.294559e+05 6.641199e+05 3.387490e+05 3.387490e+05 3.338940e+05 1.486412e+05 1.538635e+05 -1.856913e+05 -1.626881e+05 -5.334450e+04 6.409573e+05 -2.315402e+05 -1.490700e+04 -1.490700e+04 -1.490700e+04 1.210693e+05 1.210693e+05 1.210693e+05 1.914199e+05 1.995179e+04 1.995179e+04 1.995179e+04 1.181690e+04 6.634299e+05 6.417716e+05 4.125798e+05 3.979659e+05 3.979659e+05 9.652382e+04 9.652382e+04 9.652382e+04 4.356159e+05 -1.698249e+05 6.173497e+05 6.560419e+05 6.560419e+05 6.396999e+05 1.224922e+05 -1.080169e+05 -1.080169e+05 -1.072136e+05 -5.310409e+04 -5.310409e+04 6.116873e+05 -2.047844e+05 -4.808075e+04 -4.171534e+04 -1.199905e+05 2.104139e+05 2.172275e+05 6.108497e+05 5.287418e+04 5.287418e+04 5.287418e+04 -9.285157e+04 -9.285157e+04 4.783111e+05 4.629256e+05 4.629256e+05 5.643243e+05 5.537701e+05 -1.520435e+05 -1.522558e+05 5.662197e+05 5.662197e+05 5.662197e+05 5.598670e+05 -1.465637e+05 -1.465637e+05 -1.425546e+05 -2.195126e+05 -2.195126e+05 2.410060e+05 2.410060e+05 2.410060e+05 2.405979e+05 -4.988069e+04 5.700228e+05 5.700228e+05 5.700228e+05 5.735633e+05 6.026707e+05 -1.278904e+05 -1.278904e+05 -1.289012e+05 -1.289012e+05 -1.582193e+05 4.817874e+05 4.817874e+05 8.548558e+04 7.864498e+04 4.353454e+05 4.353454e+05 -1.362307e+05 -1.337813e+05 5.475275e+05 6.289759e+05 6.217437e+05 -6.426269e+04 -6.298107e+04 6.018933e+05 2.110153e+04 2.110153e+04 1.970418e+04 1.970418e+04 -6.700867e+04 5.614239e+04 6.400015e+04 3.793439e+05 -3.403612e+04 -1.409245e+05 -1.341079e+05 4.794369e+05 4.794369e+05 6.245085e+05 6.245085e+05 6.245085e+05 6.092484e+05 -2.126589e+05 -2.126589e+05 -2.163721e+05 2.323777e+05 2.295447e+05 3.568171e+05 -2.339111e+05 -2.294762e+05 -2.294762e+05 -2.294762e+05 -2.314155e+05 -3.106877e+00 7.195762e+05 5.511212e+05 5.284621e+05 5.284621e+05 -1.841007e+05 -1.841007e+05 -1.841007e+05 -1.885811e+05 5.979892e+05 5.979892e+05 5.235129e+05 5.235129e+05 5.145664e+05 4.031428e+05 3.157856e+05 5.949936e+05 -2.914356e+04 -3.502920e+04 6.047711e+05 6.018490e+05 1.559176e+05 3.358092e+05 3.358092e+05 3.358092e+05 3.452106e+05 -1.804938e+05 2.939509e+04 2.900240e+04 -2.117635e+05 -2.074526e+05 1.097798e+05 1.141095e+05 -9.969162e+04 -9.969162e+04 3.675205e+05 -7.117177e+04 -7.117177e+04 -6.330491e+04 -8.622538e+04 -8.622538e+04 4.700168e+03 -1.681368e+05 -1.681368e+05 -1.737045e+05 5.199765e+05 5.816322e+05 5.816322e+05 -1.545967e+04 -1.389579e+04 -1.389579e+04 2.634672e+05 -1.938100e+05 -2.248166e+05 -2.234735e+05 4.862562e+05 4.862562e+05 1.357648e+05 -5.116169e+04 2.564686e+05 2.533316e+05 2.297605e+05 4.887830e+05 4.887830e+05 3.521921e+05 3.521921e+05 3.521921e+05 2.209237e+05 2.216717e+05 4.241474e+05 4.240927e+05 4.240927e+05 1.395299e+05 1.322488e+05 1.322488e+05 2.874427e+05 2.013916e+05 2.104979e+05 5.511768e+05 5.538513e+05 5.538513e+05 5.538513e+05 5.629057e+05 -1.997128e+05 -1.284590e+05 -2.865768e+03 2.730447e+03 -9.996537e+04 -9.996537e+04 -9.996537e+04 5.955471e+04 5.955471e+04 5.955471e+04 6.211079e+04 7.146268e+04 -1.906362e+05 -1.574303e+05 -1.599206e+05 3.759593e+04 3.759593e+04 -1.689060e+05 -1.611238e+05 -1.619122e+05 -1.619122e+05 1.964574e+04 -7.229014e+04 -7.229014e+04 -7.556331e+04 3.884082e+05 3.884082e+05 3.788088e+05 -2.806977e+04 -2.806977e+04 1.703422e+05 -1.323245e+05 -1.323245e+05 -1.384412e+05 -1.384412e+05 -2.081765e+05 -2.081765e+05 -2.081765e+05 5.348959e+05 5.191288e+05 5.191288e+05 -2.228306e+05 -2.228306e+05 -2.228306e+05 -2.279733e+05 -2.094910e+05 4.862092e+04 5.398851e+05 5.398851e+05 5.225588e+05 5.041432e+05 5.041432e+05 5.041432e+05 3.098944e+05 3.098944e+05 3.049854e+05 2.760416e+05 2.760416e+05 2.840941e+05 -2.003555e+05 -1.870600e+05 -1.870600e+05 5.847727e+05 5.660938e+05 -4.212357e+04 -4.212357e+04 -4.212357e+04 5.972211e+05 -1.518887e+05 -1.518887e+05 -1.482913e+05 -1.482913e+05 -2.033836e+05 -2.033836e+05 -2.008917e+05 -2.008917e+05 -2.175353e+05 -2.175353e+05 -2.195505e+05 2.413882e+05 2.396049e+05 -3.675153e+04 4.622202e+05 4.622202e+05 4.622202e+05 5.988348e+04 3.428351e+05 -1.766920e+05 3.053088e+05 5.799311e+05 -9.202752e+04 3.673843e+05 3.673843e+05 5.859146e+05 5.677081e+05 5.677081e+05 2.628763e+05 2.648405e+05 5.567274e+05 5.567274e+05 5.351622e+05 -1.638833e+05 -1.638833e+05 7.975117e+04 1.329218e+05 4.908221e+05 1.930157e+05 5.765751e+05 5.536507e+05 5.536507e+05 -5.069280e+04 3.574953e+04 1.107271e+04 5.428900e+05 5.522971e+05 -1.962804e+05 -1.962804e+05 -8.807221e+04 -8.807221e+04 1.468952e+05 -2.087001e+05 -2.105642e+05 -2.105642e+05 5.077991e+05 -6.076327e+04 -4.936323e+04 1.021309e+04 1.021309e+04 1.021309e+04 9.239168e+01 9.239168e+01 3.362823e+05 4.788707e+05 5.339176e+05 4.088468e+05 4.088468e+05 2.185560e+05 2.185560e+05 2.206907e+05 2.063584e+05 2.063584e+05 5.525517e+05 5.525517e+05 5.525517e+05 5.292409e+05 5.292409e+05 2.808611e+05 2.808611e+05 2.903299e+05 3.384542e+05 3.178255e+05 3.178255e+05 3.178255e+05 -1.243385e+05 3.563780e+05 3.456935e+05 3.456935e+05 -1.184458e+05 -1.145378e+05 -2.248875e+05 -1.992243e+05 5.139819e+05 2.655064e+05 2.543125e+05 5.660938e+05 4.207099e+05 4.207099e+05 4.037701e+05 4.037701e+05 4.368665e+05 4.383032e+05 5.154779e+05 -1.825531e+05 -1.340486e+05 -1.340486e+05 -1.343873e+05 -2.120207e+05 4.580352e+05 -2.207869e+05 6.993468e+04 -1.082224e+05 5.342688e+05 4.941146e+05 4.941146e+05 4.860204e+05 4.860204e+05 -9.649666e+03 1.211933e+05 1.211933e+05 1.211933e+05 -3.856440e+04 4.486200e+05 1.674220e+05 -1.658846e+05 -1.678454e+05 -6.512860e+04 -2.064524e+05 -1.438999e+05 -1.586517e+05 -1.816355e+05 -1.816355e+05 -1.816355e+05 3.580361e+05 -2.542387e+04 -2.026155e+05 4.085533e+05 4.085533e+05 3.980007e+05 2.150616e+05 7.222905e+04 7.222905e+04 4.836612e+05 2.972149e+05 3.035637e+05 -1.948243e+05 2.062350e+05 2.062350e+05 2.224712e+05 -2.146383e+05 -1.831422e+05 -1.831422e+05 -1.885938e+05 1.268823e+05 1.268823e+05 1.268823e+05 2.398112e+05 2.186400e+04 1.781273e+05 2.314900e+03 -7.192930e+03 -7.192930e+03 -3.668421e+04 -1.009388e+05 3.546049e+05 3.546049e+05 4.334785e+05 -5.730340e+04 -5.730340e+04 -5.730340e+04 -6.223593e+04 5.160238e+05 2.629199e+05 4.943746e+05 4.695027e+05 1.027460e+05 3.306164e+05 3.361504e+05 4.901424e+05 2.500472e+05 2.487759e+05 -2.022028e+05 2.431508e+05 4.129646e+05 4.129646e+05 4.129646e+05 5.418788e+05 5.306256e+05 4.027196e+05 4.693895e+05 5.418788e+05 -1.670223e+05 -1.848973e+05 -8.778303e+04 2.975917e+05 2.765492e+05 1.931458e+05 -1.502333e+05 -1.502333e+05 -1.502333e+05 -4.693969e+04 4.693707e+05 4.693707e+05 5.015442e+05 5.015442e+05 2.250605e+05 -1.725663e+05 4.569759e+05 8.642944e+04 8.642944e+04 8.642944e+04 3.618826e+04 4.442587e+05 4.442587e+05 7.958257e+04 1.802108e+05 3.042475e+05 -1.450927e+05 4.116058e+05 4.116058e+05 4.116058e+05 -1.621104e+05 -1.621104e+05 -1.621104e+05 5.379705e+05 1.752458e+05 4.747498e+05 4.747498e+05 -1.807772e+05 -1.807772e+05 -1.807772e+05 -1.729571e+05 2.098407e+04 2.098407e+04 2.098407e+04 3.643491e+05 3.643491e+05 3.643491e+05 3.976306e+05 1.062237e+05 1.035757e+05 1.250344e+05 1.250344e+05 1.250344e+05 5.004093e+04 5.459950e+04 5.459950e+04 3.545197e+05 3.301777e+05 5.216471e+05 1.001634e+05 9.443652e+04 -1.306565e+05 -1.032648e+05 2.480340e+05 -6.188941e+04 -1.386480e+05 -1.386480e+05 -1.482161e+05 4.301790e+05 2.231313e+05 -4.181807e+04 -4.707338e+04 7.335948e+04 2.460635e+05 5.441791e+03 5.441791e+03 3.341845e+05 3.572590e+05 3.467815e+05 -7.316608e+04 1.734048e+05 4.402126e+05 -1.245410e+05 -1.245410e+05 -1.590606e+05 -1.590606e+05 3.758180e+05 3.758180e+05 3.758180e+05 3.552664e+05 3.552664e+05 2.421176e+05 3.956868e+05 3.894692e+05 3.894692e+05 -6.267982e+04 2.032094e+05 2.191696e+05 2.777921e+05 2.777921e+05 2.991003e+05 3.611924e+05 -1.209284e+05 -1.209284e+05 3.399849e+05 3.315954e+05 -1.306565e+05 -1.306565e+05 -3.880920e+04 -6.758296e+03 -6.758296e+03 -6.758296e+03 1.483887e+05 -7.902482e+04 -7.453041e+04 8.322242e+04 8.322242e+04 8.322242e+04 1.169576e+05 1.300194e+05 2.226623e+05 1.080449e+05 -4.626774e+04 2.775719e+05 2.775719e+05 2.775719e+05 2.649077e+05 -1.590437e+04 3.470800e+05 3.470800e+05 3.470800e+05 3.078198e+05 -1.062044e+05 3.232727e+05 3.232727e+05 1.535140e+05 -1.082774e+05 -1.082774e+05 -1.082774e+05 -1.116629e+05 -1.116629e+05 4.144652e+05 3.887100e+05 3.887100e+05 -9.443173e+04 -2.043636e+04 -2.043636e+04 2.574317e+05 -8.786598e+04 -8.786598e+04 -8.786598e+04 -6.786808e+04 -6.786808e+04 -6.786808e+04 1.217002e+05 1.217002e+05 1.319016e+05 3.908860e+04 -9.379563e+04 -9.379563e+04 1.148585e+05 1.851177e+05 1.851177e+05 1.675215e+05 1.675215e+05 3.158520e+05 1.247652e+04 1.760512e+04 1.760512e+04 5.632498e+03 5.632498e+03 7.917094e+04 7.917094e+04 9.992136e+04 2.347936e+05 2.347936e+05 2.189177e+05 2.189177e+05 4.651517e+04 2.411940e+05 3.568067e+05 3.486275e+05 3.486275e+05 2.240844e+05 1.585455e+05 7.115894e+04 3.280107e+05 3.280107e+05 2.394957e+05 3.387495e+05 3.387495e+05 -8.521890e+04 -8.521890e+04 2.622504e+05 3.057632e+05 3.057632e+05 3.057632e+05 2.843205e+05 2.843205e+05 3.216633e+05 1.880326e+05 1.880326e+05 2.894608e+05 2.894608e+05 2.731754e+05 7.076749e+04 1.493931e+05 -2.788273e+04 -3.646880e+04 3.154707e+05 3.154707e+05 -1.298761e+04 -1.298761e+04 1.186007e+05 1.186007e+05 -7.023136e+04 1.660906e+05 1.660906e+05 1.493276e+05 4.367712e+04 4.367712e+04 2.540094e+05 2.540094e+05 2.370681e+05 1.923959e+05 1.923959e+05 7.904808e+04 7.904808e+04 1.355826e+05 1.355826e+05 1.054958e+05 1.078875e+05 1.078875e+05 9.914169e+03 7.162782e+03 6.667413e+04 1.838832e+05 1.851664e+05 2.947986e+05 2.883192e+05 2.525288e+05 2.525288e+05 2.910559e+05 3.437643e+04 3.437643e+04 1.492655e+04 2.113425e+05 2.868098e+05 3.063335e+05 3.063335e+05 1.025301e+05 1.025301e+05 2.581620e+05 2.831066e+05 6.973489e+04 6.973489e+04 2.404767e+05 2.404767e+05 -5.098874e+03 2.704290e+04 2.704290e+04 2.704290e+04 1.066785e+04 1.066785e+04 2.361491e+05 2.207769e+05 1.932135e+05 1.932135e+05 2.140177e+05 2.140177e+05 2.345112e+05 5.783861e+04 2.714678e+05 2.450885e+05 1.560362e+05 1.306505e+05 1.824600e+05 1.530678e+05 2.100746e+05 8.616941e+04 1.414227e+05 1.719779e+05 1.558994e+05 1.628678e+05 2.030657e+05 1.960802e+05 1.078095e+05 1.078095e+05 1.554817e+05 1.480747e+05 1.810651e+05 9.598884e+04 1.023573e+05 1.631114e+05 1.631114e+05 1.616599e+05 1.616599e+05 1.211033e+05 1.211033e+05 1.515039e+05 1.385877e+05 1.385877e+05 1.385877e+05 1.389642e+05 1.389642e+05 6.231178e+04 6.231178e+04 6.231178e+04 1.927204e+04 1.927204e+04 -5.210941e+04 -4.289021e+04 8.709305e+04 -5.210941e+04 -5.210941e+04 -6.111446e+04 -6.112180e+03 2.440139e+04 3.683828e+04 4.298407e+04 4.452490e+04 6.650228e+04 6.852884e+04 8.298740e+04 8.298740e+04 1.175612e+05 -6.884455e+04 8.709305e+04 2.829688e+05 2.220229e+05 1.516859e+05 2.830689e+05 2.830689e+05 2.518836e+05 2.505421e+05 2.518836e+05 1.202813e+05 2.358374e+05 1.341299e+05 9.355863e+04 9.629522e+04 9.629522e+04 1.415957e+05 7.215481e+05 7.215481e+05 7.195762e+05 7.186787e+05 7.182458e+05 7.213170e+05 7.104062e+05 7.059546e+05 7.050454e+05 7.060917e+05 6.984515e+05 6.926179e+05 6.887350e+05 6.858401e+05 6.850823e+05 6.755889e+05 6.734079e+05 6.702219e+05 6.669833e+05 6.626958e+05 6.644875e+05 6.561373e+05 6.501349e+05 6.437225e+05 6.339812e+05 6.309860e+05 6.260772e+05 6.257299e+05 6.142296e+05 6.078941e+05 6.103165e+05 5.990068e+05 5.887038e+05 5.792194e+05 5.713198e+05 5.720467e+05 5.647842e+05 5.557100e+05 5.488207e+05 5.452876e+05 5.400618e+05 5.286828e+05 5.241581e+05 5.129809e+05 5.075509e+05 5.009916e+05 4.913581e+05 4.822272e+05 4.721516e+05 4.655170e+05 4.576442e+05 4.500660e+05 4.433121e+05 4.317375e+05 4.210003e+05 4.137693e+05 4.036897e+05 3.965306e+05 3.882716e+05 3.802993e+05 3.727725e+05 3.638336e+05 3.537412e+05 3.473366e+05 3.398904e+05 3.304816e+05 3.197682e+05 3.127645e+05 3.053439e+05 2.969115e+05 2.870601e+05 2.799810e+05 2.717431e+05 2.633437e+05 2.536042e+05 2.461621e+05 2.378081e+05 2.296410e+05 2.225361e+05 2.144175e+05 2.047753e+05 1.968861e+05 1.886676e+05 1.812490e+05 1.737288e+05 1.659161e+05 1.582426e+05 1.507508e+05 1.418193e+05 1.342655e+05 1.271741e+05 1.197597e+05 1.125402e+05 1.058011e+05 9.863479e+04 9.153780e+04 8.459793e+04 7.801523e+04 7.078310e+04 6.196166e+04 5.542960e+04 4.918067e+04 4.333390e+04 3.591742e+04 2.989816e+04 2.414432e+04 1.887748e+04 1.290687e+04 6.958290e+03 1.625156e+03 -2.081363e+03 -9.655294e+03 -1.377386e+04 -2.167803e+04 -2.734446e+04 -3.264127e+04 -3.750132e+04 -4.225543e+04 -4.769034e+04 -5.428638e+04 -5.867147e+04 -6.292620e+04 -6.640641e+04 -7.040819e+04 -7.460794e+04 -7.908262e+04 -8.326096e+04 -8.637331e+04 -8.853123e+04 -9.292930e+04 -9.625567e+04 -1.001096e+05 -1.046496e+05 -1.071125e+05 -1.109781e+05 -1.158093e+05 -1.170619e+05 -1.209309e+05 -1.228369e+05 -1.247554e+05 -1.288962e+05 -1.324424e+05 -1.350822e+05 -1.361089e+05 -1.364954e+05 -1.413492e+05 -1.404523e+05 -1.427401e+05 -1.423239e+05 -1.463920e+05 -1.493989e+05 -1.527717e+05 -1.538917e+05 -1.585887e+05 -1.634130e+05 -1.590870e+05 -1.621553e+05 -1.646731e+05 -1.658314e+05 -1.695977e+05 -1.657601e+05 -1.675901e+05 -1.640754e+05 -1.608216e+05 -1.617412e+05 -1.683391e+05 -1.734999e+05 -1.753781e+05 -1.725847e+05 -1.814665e+05 -1.824209e+05 -1.769969e+05 -1.745467e+05 -1.710436e+05 -1.775062e+05 -1.787097e+05 -1.831525e+05 -1.841632e+05 -1.756160e+05 -1.744518e+05 -2.091543e+05 1.099042e+05 1.099042e+05 1.099042e+05 1.284729e+05 1.284729e+05 1.284729e+05 1.327239e+05 1.290927e+05 1.537464e+05 1.402324e+05 1.779453e+05 1.779453e+05 1.779453e+05 1.778795e+05 4.886723e+04 4.886723e+04 4.886723e+04 4.848220e+04 5.478233e+04 4.363099e+05 4.363099e+05 4.363099e+05 4.343628e+05 4.340910e+05 4.340910e+05 4.340910e+05 4.239623e+05 8.337194e+04 8.337194e+04 8.337194e+04 9.020497e+04 9.574582e+04 9.609185e+04 -1.250159e+05 -1.250159e+05 -1.250159e+05 -1.342255e+05 -1.342255e+05 4.399882e+05 4.399882e+05 4.399882e+05 4.314722e+05 -1.752327e+05 -1.752327e+05 -1.752327e+05 -1.813781e+05 -1.813781e+05 6.276698e+05 6.276698e+05 6.276698e+05 2.453083e+05 2.453083e+05 2.453083e+05 2.495532e+05 1.725864e+05 1.725864e+05 1.725864e+05 4.365953e+05 4.365953e+05 4.365953e+05 4.513247e+05 -9.624820e+04 -9.624820e+04 -1.021140e+05 -1.021140e+05 2.797717e+05 2.797717e+05 2.851864e+05 4.411382e+05 4.411382e+05 4.411382e+05 4.628987e+05 4.628987e+05 -2.067893e+05 -2.067893e+05 -2.067893e+05 -2.047694e+05 -2.047694e+05 7.457096e+04 7.457096e+04 7.457096e+04 6.553390e+04 6.553390e+04 4.499606e+05 4.499606e+05 2.794833e+05 2.794833e+05 2.794833e+05 2.800452e+05 1.761601e+05 1.761601e+05 1.761601e+05 1.727267e+05 1.726802e+05 3.046377e+05 3.046377e+05 3.046377e+05 2.596427e+05 2.596427e+05 2.614584e+05 5.720467e+05 5.589311e+05 5.589311e+05 -1.710436e+05 -2.034838e+05 -2.034838e+05 1.691985e+05 -7.460794e+04 -7.321355e+04 1.675120e+05 1.257760e+05 1.257760e+05 1.257760e+05 1.324519e+05 7.036111e+04 1.259752e+05 1.259752e+05 1.259752e+05 1.377984e+05 1.377984e+05 4.072934e+04 4.072934e+04 4.072934e+04 4.947706e+04 -3.154855e+04 -3.154855e+04 -3.154855e+04 -3.357027e+04 4.216597e+05 4.179635e+05 4.068425e+05 4.463282e+05 4.463282e+05 1.475105e+05 1.475105e+05 1.475105e+05 1.538605e+05 3.141390e+05 3.141390e+05 3.141390e+05 3.219440e+05 3.219440e+05 3.137637e+05 -7.345538e+04 -7.345538e+04 -7.345538e+04 -7.766291e+04 -3.283086e+04 -3.283086e+04 -3.283086e+04 -2.510003e+04 -2.111469e+04 2.570889e+05 2.570889e+05 2.570889e+05 2.577681e+05 -2.022028e+05 -2.202817e+05 3.385821e+04 3.385821e+04 3.385821e+04 4.143203e+04 -1.174063e+05 -1.174063e+05 -1.174063e+05 -1.137789e+05 3.738399e+05 3.738399e+05 3.738399e+05 3.860344e+05 3.860344e+05 -1.525645e+05 -1.525645e+05 -1.525645e+05 -1.484362e+05 3.877760e+05 3.877760e+05 3.877760e+05 3.805813e+05 4.737548e+05 4.737548e+05 4.737548e+05 4.791263e+05 -7.099616e+04 -7.099616e+04 -6.946837e+04 1.812656e+05 1.812656e+05 1.991183e+05 1.991183e+05 1.991183e+05 1.401555e+05 1.401555e+05 1.401555e+05 1.373161e+05 -2.097971e+05 -2.097971e+05 -2.097971e+05 -2.133393e+05 -2.133393e+05 6.064348e+05 6.064348e+05 6.064348e+05 5.941082e+05 5.941082e+05 1.856040e+05 3.926800e+05 3.926800e+05 3.974601e+05 -2.069219e+05 -2.069219e+05 -2.069219e+05 -2.112125e+05 -1.702237e+05 -1.702237e+05 -1.798068e+05 -1.798068e+05 5.352954e+05 5.352954e+05 5.361621e+05 4.639690e+05 4.639690e+05 -1