<?xml version="1.0"?>
 <VTKFile type="UnstructuredGrid" version="1.0" byte_order="LittleEndian" header_type="UInt64">
  <UnstructuredGrid>
    <FieldData>
     <DataArray type="Float64" Name="TimeValue" NumberOfTuples="1" format="ascii">
0.00021
     </DataArray>
    </FieldData>
   <Piece NumberOfPoints="3468" NumberOfCells="3392">
    <PointData>
     <DataArray type="Float64" Name="pointP" format="ascii">
1.716339e+04 1.826154e+04 2.039932e+04 2.439913e+04 2.511019e+04 2.844340e+04 2.844340e+04 3.002181e+04 3.231661e+04 3.527039e+04 3.527039e+04 3.776163e+04 3.855335e+04 4.170996e+04 4.170996e+04 4.319524e+04 4.468983e+04 4.672286e+04 4.924124e+04 4.988693e+04 5.060004e+04 5.347326e+04 5.477326e+04 5.477326e+04 5.721587e+04 5.831875e+04 5.871618e+04 5.988365e+04 6.230791e+04 6.294642e+04 6.399714e+04 6.512809e+04 6.616066e+04 6.698187e+04 6.798835e+04 6.914550e+04 7.071157e+04 7.203847e+04 7.283312e+04 7.372074e+04 7.451240e+04 7.479092e+04 7.596348e+04 7.722353e+04 7.786485e+04 7.814000e+04 7.939117e+04 8.009382e+04 8.043945e+04 8.113680e+04 8.180081e+04 8.259165e+04 8.377639e+04 8.377639e+04 8.494664e+04 8.494664e+04 8.574529e+04 8.671844e+04 8.694550e+04 8.739634e+04 8.829815e+04 8.872436e+04 8.872436e+04 8.913898e+04 8.973622e+04 8.998510e+04 9.072363e+04 9.121430e+04 9.121430e+04 9.186277e+04 9.195048e+04 9.230622e+04 9.274736e+04 9.327972e+04 9.327972e+04 9.359173e+04 9.396385e+04 9.414433e+04 9.435307e+04 9.476299e+04 9.499234e+04 9.499234e+04 9.524109e+04 9.553722e+04 9.579766e+04 9.579766e+04 9.597014e+04 9.630345e+04 9.630345e+04 9.662229e+04 9.678736e+04 9.678736e+04 9.693362e+04 9.705359e+04 9.728435e+04 9.733198e+04 9.758378e+04 9.770435e+04 9.770435e+04 9.789829e+04 9.805180e+04 9.805180e+04 9.817432e+04 9.835358e+04 9.844229e+04 9.869890e+04 9.869890e+04 9.890254e+04 9.908109e+04 9.908109e+04 9.937029e+04 9.942358e+04 9.967270e+04 9.982137e+04 9.982137e+04 1.001532e+05 1.002771e+05 1.003368e+05 1.005719e+05 1.006643e+05 1.008659e+05 1.013250e+05 1.013250e+05 1.013250e+05 1.013250e+05 1.013250e+05 9.957781e+04 9.880764e+04 9.835213e+04 9.923579e+04 1.068878e+05 1.068878e+05 1.128217e+05 1.128217e+05 9.091664e+04 9.091664e+04 9.091664e+04 9.162531e+04 9.162531e+04 1.005600e+05 1.005600e+05 8.399168e+04 8.399168e+04 8.399168e+04 8.777970e+04 8.777970e+04 9.460116e+04 9.460116e+04 9.460116e+04 9.681984e+04 1.022412e+05 1.022412e+05 1.005939e+05 9.937159e+04 9.937159e+04 9.937159e+04 9.952818e+04 9.952818e+04 9.923987e+04 9.977472e+04 9.977472e+04 9.949528e+04 1.006097e+05 1.000086e+05 9.993774e+04 1.006991e+05 1.006991e+05 1.008928e+05 1.008928e+05 1.009758e+05 1.009816e+05 8.683124e+04 8.683124e+04 8.683124e+04 8.335034e+04 8.335034e+04 8.209650e+04 6.123247e+04 6.123247e+04 6.123247e+04 6.108678e+04 6.150813e+04 8.868049e+04 7.807114e+04 7.807114e+04 7.857687e+04 6.251702e+04 6.251702e+04 6.294737e+04 7.799557e+04 7.799557e+04 7.799557e+04 8.502989e+03 8.502989e+03 8.502989e+03 2.411120e+04 2.411120e+04 2.411120e+04 9.028485e+04 9.028485e+04 9.028485e+04 5.019238e+04 5.019238e+04 5.019238e+04 7.149573e+04 7.149573e+04 7.149573e+04 7.190938e+04 4.566885e+04 4.566885e+04 6.104500e+04 6.104500e+04 6.104500e+04 1.673250e+04 2.523104e+04 5.994716e+04 5.994716e+04 8.556382e+04 8.556382e+04 8.556382e+04 8.726362e+04 8.726362e+04 8.432447e+04 8.700514e+04 8.700514e+04 1.006676e+05 1.006676e+05 1.006676e+05 9.235911e+04 9.235911e+04 5.674496e+04 5.674496e+04 5.674496e+04 6.181400e+04 4.172726e+04 5.252632e+04 6.968355e+04 6.968355e+04 6.505929e+04 6.505929e+04 6.505929e+04 4.477559e+04 4.015466e+04 4.015466e+04 5.375320e+04 5.375320e+04 5.375320e+04 8.856150e+04 8.856150e+04 8.856150e+04 6.407536e+04 6.407536e+04 6.407536e+04 1.012564e+05 9.662253e+04 1.845668e+04 1.845668e+04 1.845668e+04 2.379985e+04 7.771703e+04 7.771703e+04 2.535499e+04 6.712150e+04 6.712150e+04 6.712150e+04 2.059763e+04 2.059763e+04 6.807332e+04 6.807332e+04 5.623431e+04 5.623431e+04 5.623431e+04 3.824427e+04 3.824427e+04 3.824427e+04 3.964643e+04 3.964643e+04 3.964643e+04 2.350369e+04 2.350369e+04 6.972942e+04 6.972942e+04 2.893186e+04 2.893186e+04 2.893186e+04 6.904284e+04 7.428154e+04 7.428154e+04 7.428154e+04 2.589028e+04 6.949320e+04 6.949320e+04 5.344790e+04 5.344790e+04 5.344790e+04 7.906066e+04 7.906066e+04 7.906066e+04 4.055423e+04 4.423811e+04 4.423811e+04 4.423811e+04 3.329366e+04 3.329366e+04 3.329366e+04 2.494897e+04 2.253211e+04 5.047089e+04 5.047089e+04 5.047089e+04 5.271807e+04 5.271807e+04 7.844716e+04 7.844716e+04 7.844716e+04 2.934864e+04 2.934864e+04 2.934864e+04 2.912031e+04 2.838058e+04 3.037338e+04 3.037338e+04 7.359766e+04 7.359766e+04 7.359766e+04 3.352975e+04 3.352975e+04 4.963109e+04 4.963109e+04 1.528817e+04 3.285299e+04 3.285299e+04 4.308220e+04 4.308220e+04 4.308220e+04 6.405954e+04 3.418418e+04 3.938467e+04 3.938467e+04 6.829520e+04 6.829520e+04 6.452806e+04 6.452806e+04 6.452806e+04 5.406859e+04 5.406859e+04 8.631370e+04 8.631370e+04 8.631370e+04 8.020213e+04 8.020213e+04 8.020213e+04 6.003749e+04 2.711241e+04 7.634535e+04 7.634535e+04 7.634535e+04 5.119294e+04 5.119294e+04 5.119294e+04 4.693936e+04 4.498925e+04 2.711241e+04 5.450313e+04 8.199241e+04 8.199241e+04 8.199241e+04 5.752588e+04 5.752588e+04 8.433751e+04 8.433751e+04 8.433751e+04 5.999322e+04 5.999322e+04 5.999322e+04 5.719481e+04 8.747641e+04 8.747641e+04 8.747641e+04 5.963086e+04 4.972163e+04 4.972163e+04 5.616898e+04 7.374810e+04 7.374810e+04 5.670348e+04 6.350464e+04 6.350464e+04 6.520736e+04 6.520736e+04 6.218732e+04 5.500061e+04 7.962927e+04 7.962927e+04 7.962927e+04 6.633055e+04 8.730760e+04 8.730760e+04 4.155451e+04 6.720187e+04 6.720187e+04 6.709686e+04 9.271058e+04 9.271058e+04 9.271058e+04 8.559502e+04 8.559502e+04 6.941373e+04 6.941373e+04 7.147988e+04 7.147988e+04 5.876959e+04 8.377838e+04 8.377838e+04 8.377838e+04 7.699929e+04 7.699929e+04 7.699929e+04 5.252632e+04 8.405959e+04 8.405959e+04 7.684956e+04 7.638109e+04 4.582502e+04 5.775536e+04 6.317131e+04 6.317131e+04 8.863196e+04 8.863196e+04 8.863196e+04 7.183101e+04 9.451511e+04 9.451511e+04 9.451511e+04 7.601673e+04 7.601673e+04 7.283894e+04 6.284609e+04 9.261018e+04 9.261018e+04 9.261018e+04 8.953447e+04 8.953447e+04 8.953447e+04 9.112820e+04 9.112820e+04 8.774072e+04 8.774072e+04 8.661227e+04 8.661227e+04 8.558226e+04 6.859279e+04 6.859279e+04 7.305122e+04 7.305122e+04 8.006755e+04 8.006755e+04 6.678230e+04 9.432966e+04 9.497790e+04 9.497790e+04 9.497790e+04 7.896675e+04 8.971392e+04 8.971392e+04 8.168287e+04 8.168287e+04 8.667709e+04 6.987094e+04 7.928715e+04 8.548403e+04 8.548403e+04 8.693296e+04 8.693296e+04 7.673485e+04 9.552044e+04 9.552044e+04 9.552044e+04 9.653714e+04 9.653714e+04 9.653714e+04 8.208783e+04 8.208783e+04 8.208783e+04 7.962674e+04 7.962674e+04 9.959883e+04 9.959883e+04 9.959883e+04 9.525714e+04 9.525714e+04 9.525714e+04 8.950364e+04 9.595471e+04 9.595471e+04 9.595471e+04 9.053639e+04 9.053639e+04 8.266562e+04 9.541230e+04 9.541230e+04 9.785905e+04 9.785905e+04 9.785905e+04 8.386478e+04 8.386478e+04 8.839331e+04 8.839331e+04 9.232391e+04 9.232391e+04 9.232391e+04 9.747013e+04 9.747013e+04 9.747013e+04 9.164438e+04 9.751785e+04 9.751785e+04 9.751785e+04 9.985399e+04 9.985399e+04 9.985399e+04 9.389543e+04 9.389543e+04 9.389543e+04 9.274987e+04 9.383847e+04 9.383847e+04 9.285127e+04 8.822402e+04 8.822402e+04 9.979040e+04 9.366204e+04 9.366204e+04 9.366204e+04 9.784277e+04 9.784277e+04 9.784277e+04 9.419190e+04 9.419190e+04 9.419190e+04 9.608671e+04 9.608671e+04 9.608671e+04 9.510000e+04 9.510000e+04 9.524402e+04 9.524402e+04 9.617240e+04 9.617240e+04 9.691721e+04 9.691721e+04 9.691721e+04 9.325260e+04 9.325260e+04 9.291945e+04 9.291945e+04 9.739792e+04 9.759116e+04 9.759116e+04 9.484494e+04 9.484494e+04 9.554022e+04 9.788955e+04 9.788955e+04 9.788955e+04 9.614974e+04 9.614974e+04 9.703234e+04 9.703234e+04 9.556635e+04 9.810103e+04 9.810103e+04 9.810103e+04 1.063024e+05 1.063024e+05 1.063024e+05 9.813862e+04 9.813862e+04 9.864789e+04 9.864789e+04 9.864789e+04 9.765623e+04 9.909051e+04 9.909051e+04 9.621169e+04 1.010642e+05 4.411441e+04 9.309102e+04 4.461365e+04 7.083362e+04 1.066980e+05 1.003155e+05 1.003155e+05 1.003155e+05 9.657468e+04 9.657468e+04 9.447803e+04 9.474128e+04 1.005225e+05 9.648698e+04 1.047171e+05 8.946606e+04 9.732730e+04 9.732730e+04 9.821879e+04 9.821879e+04 9.821879e+04 9.820313e+04 9.619979e+04 9.444338e+04 9.444338e+04 9.494761e+04 9.494761e+04 9.494761e+04 9.497318e+04 8.600866e+04 8.468620e+04 3.705907e+04 3.838551e+04 3.838551e+04 1.725332e+04 5.935560e+04 5.935560e+04 9.119928e+04 9.247535e+04 9.890264e+04 9.890264e+04 9.890264e+04 9.958595e+04 9.958595e+04 2.158265e+04 2.158265e+04 4.780598e+04 3.353655e+04 2.352849e+04 2.374689e+04 2.855987e+04 2.855987e+04 2.855987e+04 5.342471e+04 3.445393e+04 3.865542e+04 6.654249e+04 5.548542e+04 4.907926e+04 4.907926e+04 4.907926e+04 4.713632e+04 4.713632e+04 2.171837e+04 2.535284e+04 3.955651e+04 1.962362e+04 5.267364e+04 3.295254e+04 3.047264e+04 3.047264e+04 2.683343e+04 4.397742e+04 4.397742e+04 4.176188e+04 3.049415e+04 4.416340e+04 5.683197e+04 5.745132e+04 6.007656e+04 4.153995e+04 4.153995e+04 4.153995e+04 3.612210e+04 3.612210e+04 5.063278e+04 5.122989e+04 3.751083e+04 3.507539e+04 4.527119e+04 2.755404e+04 3.218188e+04 7.557802e+04 5.176996e+04 3.653007e+04 5.642743e+04 4.208635e+04 4.621581e+04 6.536348e+04 6.477859e+04 7.050940e+04 4.402572e+04 2.940955e+04 8.343888e+04 8.343888e+04 3.590902e+04 7.117496e+04 7.117496e+04 5.451837e+04 5.451837e+04 7.037216e+04 8.491924e+04 8.151725e+04 8.151725e+04 8.151725e+04 4.573287e+04 4.669381e+04 4.669381e+04 8.402037e+04 8.716431e+04 5.571016e+04 8.045062e+04 8.015109e+04 8.015109e+04 7.183163e+04 6.392466e+04 6.639512e+04 6.639512e+04 7.351530e+04 7.290149e+04 7.447125e+04 8.047774e+04 8.042721e+04 8.895124e+04 8.895124e+04 6.365614e+04 5.367526e+04 7.201465e+04 7.201465e+04 7.201465e+04 7.702148e+04 8.080046e+04 5.725572e+04 7.097564e+04 8.587738e+04 8.587738e+04 8.587738e+04 6.762995e+04 6.762995e+04 8.256395e+04 7.641213e+04 8.957385e+04 7.468174e+04 8.829919e+04 9.063741e+04 9.063741e+04 8.644668e+04 8.513906e+04 7.748960e+04 8.221488e+04 8.253394e+04 7.934559e+04 8.983432e+04 8.983432e+04 8.983432e+04 8.699432e+04 7.297461e+04 7.792259e+04 9.020477e+04 6.863041e+04 7.503867e+04 7.503867e+04 9.161550e+04 9.132389e+04 9.639179e+04 9.639179e+04 7.622575e+04 9.416607e+04 9.416607e+04 9.382537e+04 9.059524e+04 9.059524e+04 9.366068e+04 9.366068e+04 8.121492e+04 9.197218e+04 9.428831e+04 9.461796e+04 9.461796e+04 7.926681e+04 8.813672e+04 8.813672e+04 9.115548e+04 9.115548e+04 9.115548e+04 8.359422e+04 8.359422e+04 8.657573e+04 9.320246e+04 9.320246e+04 9.614830e+04 9.570244e+04 9.417728e+04 8.809438e+04 9.220050e+04 8.860525e+04 8.935887e+04 9.084779e+04 9.055452e+04 9.483186e+04 9.701998e+04 9.701998e+04 9.701998e+04 9.459279e+04 9.522213e+04 9.573983e+04 9.573983e+04 9.573983e+04 9.321544e+04 9.183442e+04 9.183442e+04 9.183442e+04 9.676940e+04 8.645269e+04 9.713312e+04 9.713312e+04 9.500116e+04 8.857705e+04 8.346805e+04 8.771080e+04 9.193618e+04 9.944994e+04 9.944994e+04 9.290245e+04 8.978271e+04 9.595790e+04 8.724711e+04 9.370365e+04 9.370365e+04 9.370365e+04 9.661805e+04 9.617651e+04 9.617651e+04 9.617651e+04 9.751308e+04 9.751308e+04 9.682227e+04 9.258312e+04 9.843187e+04 9.835956e+04 9.542935e+04 9.596174e+04 9.596174e+04 9.810365e+04 9.810365e+04 8.911540e+04 9.638850e+04 9.772975e+04 9.772975e+04 9.691083e+04 9.691083e+04 8.322297e+04 9.556400e+04 9.391917e+04 9.876692e+04 9.876692e+04 9.853701e+04 9.853701e+04 9.853701e+04 9.883483e+04 9.819448e+04 9.819448e+04 9.508899e+04 9.299932e+04 9.355365e+04 9.654159e+04 9.665117e+04 9.665117e+04 9.870420e+04 9.594892e+04 9.732164e+04 9.650557e+04 9.682844e+04 9.682844e+04 9.614482e+04 9.574451e+04 9.758513e+04 9.758513e+04 9.831111e+04 9.831111e+04 9.700130e+04 9.700130e+04 1.005383e+05 9.931017e+04 1.003387e+05 9.981890e+04 9.256947e+04 9.256947e+04 9.770405e+04 9.899932e+04 9.899932e+04 9.909161e+04 9.909161e+04 9.996873e+04 9.996873e+04 9.845623e+04 9.366902e+04 9.337165e+04 9.747922e+04 9.651849e+04 9.903525e+04 9.731408e+04 9.719815e+04 9.919697e+04 9.919697e+04 9.073190e+04 9.796231e+04 9.796231e+04 9.796231e+04 9.802452e+04 1.002659e+05 1.000306e+05 9.638639e+04 9.375475e+04 9.698675e+04 9.690207e+04 9.869590e+04 1.001487e+05 9.548483e+04 1.003392e+05 9.935584e+04 9.717827e+04 9.889818e+04 9.751324e+04 9.960893e+04 9.890188e+04 9.861314e+04 9.845364e+04 9.868543e+04 9.618509e+04 9.683266e+04 9.791636e+04 9.744982e+04 9.744982e+04 9.843028e+04 9.843028e+04 9.782292e+04 9.782292e+04 9.773986e+04 9.827189e+04 9.879031e+04 1.013250e+05 1.013250e+05 1.013250e+05 1.013250e+05 1.006151e+05 9.979419e+04 9.885351e+04 9.866492e+04 9.981856e+04 1.080682e+05 1.239224e+05 9.782308e+04 9.782308e+04 9.782308e+04 9.743184e+04 9.935346e+04 9.625286e+04 9.646021e+04 9.878531e+04 9.878531e+04 9.878531e+04 9.872701e+04 9.580955e+04 9.580955e+04 9.580955e+04 9.591923e+04 1.085337e+05 1.085337e+05 1.085337e+05 1.076165e+05 1.076165e+05 9.967608e+04 9.967608e+04 9.967608e+04 1.000209e+05 1.000209e+05 1.049964e+05 9.947096e+04 9.947096e+04 9.979053e+04 9.914699e+04 9.914699e+04 9.912802e+04 9.550019e+04 1.002588e+05 1.002588e+05 1.002588e+05 1.007189e+05 1.007189e+05 1.007189e+05 1.008083e+05 9.982137e+04 9.996020e+04 9.996020e+04 9.996020e+04 1.064609e+05 1.100162e+05 1.064609e+05 1.064609e+05 1.000469e+05 1.001825e+05 1.205574e+05 1.256427e+05 1.205574e+05 1.205574e+05 9.677273e+04 9.753183e+04 9.753183e+04 9.753183e+04 9.757233e+04 9.856812e+04 9.856812e+04 1.006151e+05 1.355637e+05 9.990338e+04 9.990338e+04 1.003711e+05 9.709301e+04 9.709301e+04 1.153329e+05 6.239319e+04 6.239319e+04 6.239319e+04 6.294642e+04 8.641194e+04 8.641194e+04 8.641194e+04 8.690229e+04 8.690229e+04 9.589846e+04 9.589846e+04 9.589846e+04 9.558345e+04 9.558345e+04 7.976155e+04 7.976155e+04 7.976155e+04 7.868943e+04 9.506387e+04 9.506387e+04 9.506387e+04 9.518867e+04 8.699184e+04 8.699184e+04 8.699184e+04 8.723279e+04 8.741464e+04 8.744982e+04 7.111818e+04 7.111818e+04 7.111818e+04 7.069804e+04 7.067902e+04 8.009382e+04 8.009382e+04 8.287187e+04 8.287187e+04 8.287187e+04 6.833944e+04 6.833944e+04 6.833944e+04 6.181409e+04 6.181409e+04 6.181409e+04 9.434715e+04 9.434715e+04 9.326088e+04 9.326088e+04 9.670141e+04 9.670141e+04 9.670141e+04 9.663698e+04 4.196622e+04 4.196622e+04 4.196622e+04 8.819937e+04 8.819937e+04 8.819937e+04 6.401995e+04 6.401995e+04 6.401995e+04 8.215211e+04 8.215211e+04 8.215211e+04 5.546695e+04 5.546695e+04 5.546695e+04 5.238212e+04 5.238212e+04 4.012760e+04 4.012760e+04 3.127388e+04 3.127388e+04 3.127388e+04 5.924358e+04 5.924358e+04 5.924358e+04 7.492336e+04 7.492336e+04 7.492336e+04 6.886587e+04 5.881059e+04 9.485090e+04 9.485090e+04 9.485090e+04 8.952536e+04 8.952536e+04 8.952536e+04 8.332067e+04 8.332067e+04 1.035358e+05 1.035358e+05 1.018272e+05 8.959847e+04 8.959847e+04 8.959847e+04 8.946598e+04 8.946598e+04 8.946598e+04 6.759606e+04 7.027158e+04 8.142602e+04 8.142602e+04 8.142602e+04 9.400090e+04 9.400090e+04 9.400090e+04 8.246881e+04 5.424931e+04 5.948614e+04 5.948614e+04 5.948614e+04 3.217918e+04 3.217918e+04 3.217918e+04 6.604259e+04 6.604259e+04 6.928485e+04 6.928485e+04 7.878884e+04 8.355889e+04 8.355889e+04 9.483363e+04 9.483363e+04 9.483363e+04 9.400474e+04 9.516152e+04 9.516152e+04 9.917504e+04 9.917504e+04 9.917504e+04 2.493401e+04 4.718532e+04 4.718532e+04 4.718532e+04 3.297721e+04 3.297721e+04 3.059714e+04 7.451240e+04 7.451240e+04 3.516158e+04 3.516158e+04 6.441207e+04 6.441207e+04 6.441207e+04 2.922607e+04 3.805059e+04 3.805059e+04 3.805059e+04 5.316468e+04 5.316468e+04 5.316468e+04 4.058597e+04 4.058597e+04 5.869381e+04 5.869381e+04 5.869381e+04 6.009101e+04 4.417197e+04 4.417197e+04 4.417197e+04 5.403805e+04 5.403805e+04 5.403805e+04 2.615028e+04 2.615028e+04 2.615028e+04 2.944038e+04 2.944038e+04 2.974298e+04 4.714326e+04 4.714326e+04 4.720658e+04 4.720658e+04 3.658400e+04 3.658400e+04 5.071896e+04 2.974298e+04 2.974298e+04 7.316295e+04 7.316295e+04 7.316295e+04 4.154049e+04 3.325949e+04 3.270353e+04 5.699162e+04 5.699162e+04 7.516463e+04 7.516463e+04 7.516463e+04 7.243322e+04 6.856467e+04 9.101274e+04 9.101274e+04 9.101274e+04 3.412463e+04 8.018700e+04 8.018700e+04 8.018700e+04 6.374897e+04 6.374897e+04 6.374897e+04 4.341193e+04 9.196338e+04 9.196338e+04 9.196338e+04 7.559687e+04 7.095759e+04 7.095759e+04 7.095759e+04 7.313868e+04 3.751442e+04 3.242862e+04 9.300588e+04 9.300588e+04 9.300588e+04 4.913203e+04 4.913203e+04 3.821008e+04 3.821008e+04 4.351099e+04 4.659842e+04 8.284805e+04 5.042051e+04 6.524992e+04 6.524992e+04 8.465200e+04 8.465200e+04 8.465200e+04 9.386731e+04 9.386731e+04 9.386731e+04 7.867450e+04 7.867450e+04 7.867450e+04 9.304301e+04 9.304301e+04 6.386606e+04 6.386606e+04 6.733104e+04 6.733104e+04 7.602627e+04 7.602627e+04 7.602627e+04 5.301279e+04 5.301279e+04 4.154862e+04 4.154862e+04 7.475104e+04 7.475104e+04 4.421248e+04 4.421248e+04 4.421248e+04 6.048561e+04 9.366190e+04 9.366190e+04 8.064586e+04 7.808311e+04 7.808311e+04 7.808311e+04 4.812427e+04 5.797799e+04 8.466904e+04 8.466904e+04 8.466904e+04 8.579150e+04 8.579150e+04 7.363174e+04 7.363174e+04 7.363174e+04 4.949788e+04 8.834799e+04 8.834799e+04 8.834799e+04 7.239692e+04 7.678581e+04 8.643935e+04 9.017285e+04 9.017285e+04 9.099510e+04 9.099510e+04 7.792943e+04 8.510882e+04 8.510882e+04 8.510882e+04 8.061067e+04 6.385725e+04 6.385725e+04 8.625429e+04 8.625429e+04 8.804597e+04 8.804597e+04 9.538536e+04 9.538536e+04 7.541019e+04 5.881059e+04 8.950294e+04 8.950294e+04 8.950294e+04 6.620161e+04 6.858165e+04 9.651862e+04 9.651862e+04 9.651862e+04 8.462674e+04 7.472893e+04 7.472893e+04 7.246834e+04 9.747009e+04 9.747009e+04 9.747009e+04 8.679177e+04 7.118731e+04 7.432120e+04 9.667645e+04 9.667645e+04 9.255556e+04 9.255556e+04 9.255556e+04 9.315013e+04 9.315013e+04 9.315013e+04 7.733822e+04 8.189319e+04 9.757335e+04 9.757335e+04 9.757335e+04 9.035689e+04 9.035689e+04 9.035689e+04 9.018129e+04 9.732905e+04 9.732905e+04 9.732905e+04 8.613043e+04 9.786066e+04 8.993980e+04 9.371116e+04 9.371116e+04 8.464874e+04 8.515251e+04 8.639097e+04 9.796337e+04 9.796337e+04 9.796337e+04 9.676899e+04 9.951984e+04 9.951984e+04 9.951984e+04 9.420263e+04 9.203165e+04 9.203165e+04 9.170428e+04 9.191786e+04 9.766446e+04 9.766446e+04 8.679802e+04 8.679802e+04 9.690499e+04 9.627609e+04 9.627609e+04 9.655385e+04 9.190297e+04 9.190297e+04 9.036868e+04 8.934386e+04 9.876138e+04 9.876138e+04 9.907968e+04 9.758947e+04 9.758947e+04 9.393926e+04 1.005486e+05 9.633874e+04 9.633874e+04 9.680135e+04 9.726067e+04 9.726067e+04 9.726067e+04 9.570788e+04 1.150600e+05 1.150600e+05 9.590975e+04 9.590975e+04 1.002507e+05 9.798494e+04 9.938120e+04 9.938120e+04 9.782581e+04 9.807982e+04 9.807982e+04 9.426472e+04 8.489921e+04 8.920805e+04 8.998923e+04 8.998923e+04 9.827839e+04 9.162502e+04 8.956526e+04 8.956526e+04 2.493401e+04 2.493401e+04 9.289361e+04 8.189344e+04 9.683336e+04 9.683336e+04 9.358992e+04 9.086791e+04 8.716322e+04 8.716322e+04 7.026588e+04 8.107754e+04 4.672286e+04 9.274736e+04 9.869890e+04 9.942358e+04 9.942358e+04 9.967270e+04 2.511019e+04 2.511019e+04 2.844340e+04 3.056784e+04 3.056784e+04 1.716339e+04 1.822088e+04 1.716339e+04 2.662993e+04 4.769723e+04 1.936766e+04 2.278709e+04 2.278709e+04 2.278709e+04 3.527039e+04 3.854553e+04 3.854553e+04 3.854553e+04 3.776163e+04 3.776163e+04 2.052322e+04 4.988693e+04 4.988693e+04 4.170996e+04 4.319524e+04 3.384361e+04 3.384361e+04 4.468983e+04 6.512809e+04 5.106919e+04 4.380873e+04 5.477326e+04 2.184778e+04 2.184778e+04 4.087085e+04 1.944588e+04 4.528667e+04 2.960423e+04 2.645695e+04 5.831875e+04 5.831875e+04 6.616066e+04 5.721587e+04 6.666450e+04 5.008711e+04 4.108565e+04 3.709329e+04 5.537659e+04 6.026178e+04 6.026178e+04 6.026178e+04 6.055874e+04 4.570175e+04 4.740498e+04 4.189127e+04 4.189127e+04 5.254338e+04 7.786485e+04 7.786485e+04 5.245650e+04 3.878870e+04 5.447502e+04 6.044634e+04 7.283312e+04 7.283312e+04 5.035733e+04 5.035733e+04 5.035733e+04 6.755495e+04 6.755495e+04 4.827498e+04 6.798835e+04 6.124772e+04 7.674412e+04 7.674412e+04 7.674412e+04 5.323493e+04 7.595132e+04 7.595132e+04 6.591100e+04 6.166288e+04 8.574529e+04 8.574529e+04 6.914550e+04 7.071157e+04 7.071157e+04 8.494664e+04 7.203847e+04 4.423832e+04 6.626714e+04 7.467521e+04 7.011898e+04 7.011898e+04 8.303954e+04 8.303954e+04 8.303954e+04 5.646051e+04 8.113680e+04 7.939117e+04 5.579483e+04 5.830194e+04 7.063851e+04 7.153939e+04 7.857123e+04 8.019080e+04 8.019080e+04 6.649000e+04 6.649000e+04 6.334095e+04 6.311616e+04 5.036596e+04 6.873629e+04 7.359762e+04 5.846632e+04 6.437455e+04 8.377639e+04 8.159643e+04 8.159643e+04 8.159643e+04 8.765325e+04 6.269119e+04 7.811655e+04 7.811655e+04 8.872436e+04 8.266861e+04 9.072363e+04 9.072363e+04 8.853576e+04 8.365960e+04 8.476914e+04 8.476914e+04 9.186277e+04 8.973622e+04 8.973622e+04 8.563152e+04 8.267515e+04 8.913898e+04 9.064503e+04 7.986111e+04 7.627180e+04 7.749532e+04 8.418073e+04 7.621753e+04 9.215785e+04 9.043258e+04 8.947874e+04 9.010083e+04 8.887559e+04 8.188948e+04 9.396385e+04 9.396385e+04 9.414433e+04 9.412373e+04 7.198256e+04 9.112694e+04 9.112694e+04 9.433304e+04 9.433304e+04 9.441151e+04 8.342787e+04 9.580687e+04 8.503789e+04 9.137034e+04 9.273612e+04 8.434138e+04 9.327972e+04 7.956534e+04 9.177974e+04 9.177974e+04 9.476299e+04 8.855766e+04 9.728435e+04 9.728435e+04 9.678736e+04 9.494267e+04 8.896312e+04 7.757542e+04 9.662229e+04 8.712305e+04 9.566278e+04 9.566278e+04 9.579766e+04 9.553722e+04 9.439007e+04 9.630345e+04 9.636565e+04 9.029151e+04 9.647711e+04 9.355817e+04 9.355817e+04 9.268516e+04 9.693362e+04 9.705359e+04 6.742728e+04 9.770435e+04 9.519384e+04 9.805180e+04 9.200952e+04 9.879790e+04 9.879790e+04 9.597014e+04 9.669819e+04 9.078616e+04 9.078616e+04 9.852091e+04 9.852091e+04 9.852091e+04 9.311739e+04 9.730315e+04 9.473423e+04 8.020951e+04 9.590699e+04 9.758378e+04 7.851375e+04 9.789829e+04 9.789829e+04 9.704020e+04 8.801748e+04 9.725880e+04 9.622551e+04 9.753919e+04 9.632521e+04 9.755259e+04 9.775739e+04 9.775739e+04 9.447966e+04 9.441903e+04 9.883376e+04 9.669187e+04 9.488992e+04 9.488992e+04 9.488992e+04 9.600942e+04 9.889819e+04 9.810793e+04 9.828928e+04 9.828928e+04 9.828928e+04 9.908109e+04 9.617434e+04 9.617434e+04 9.858732e+04 9.873535e+04 9.775206e+04 9.835358e+04 9.792087e+04 9.943162e+04 1.005719e+05 9.894840e+04 9.886223e+04 9.510775e+04 9.914771e+04 9.961632e+04 9.562894e+04 9.714276e+04 9.714276e+04 9.803577e+04 9.803577e+04 9.826740e+04 9.781941e+04 9.870401e+04 9.688606e+04 9.775301e+04 9.830693e+04 9.840814e+04 1.002771e+05 8.790437e+04 9.900333e+04 9.855492e+04 9.825982e+04 9.830358e+04 9.921615e+04 9.766368e+04 9.827097e+04 9.809275e+04 9.136687e+04 9.962142e+04 1.008659e+05 9.836470e+04 9.836470e+04 9.914638e+04 9.914638e+04 9.289161e+04 9.289161e+04 9.968913e+04 9.830847e+04 9.786463e+04 9.980201e+04 9.773987e+04 9.646345e+04 9.563525e+04 9.999109e+04 9.802669e+04 9.885351e+04 9.854183e+04 9.888623e+04 1.007533e+05 1.009974e+05 1.007718e+05 1.716339e+04 1.826154e+04 2.039932e+04 2.439913e+04 2.511019e+04 2.844340e+04 2.844340e+04 3.002181e+04 3.231661e+04 3.527039e+04 3.527039e+04 3.776163e+04 3.855335e+04 4.170996e+04 4.170996e+04 4.319524e+04 4.468983e+04 4.672286e+04 4.924124e+04 4.988693e+04 5.060004e+04 5.347326e+04 5.477326e+04 5.477326e+04 5.721587e+04 5.831875e+04 5.871618e+04 5.988365e+04 6.230791e+04 6.294642e+04 6.399714e+04 6.512809e+04 6.616066e+04 6.698187e+04 6.798835e+04 6.914550e+04 7.071157e+04 7.203847e+04 7.283312e+04 7.372074e+04 7.451240e+04 7.479092e+04 7.596348e+04 7.722353e+04 7.786485e+04 7.814000e+04 7.939117e+04 8.009382e+04 8.043945e+04 8.113680e+04 8.180081e+04 8.259165e+04 8.377639e+04 8.377639e+04 8.494664e+04 8.494664e+04 8.574529e+04 8.671844e+04 8.694550e+04 8.739634e+04 8.829815e+04 8.872436e+04 8.872436e+04 8.913898e+04 8.973622e+04 8.998510e+04 9.072363e+04 9.121430e+04 9.121430e+04 9.186277e+04 9.195048e+04 9.230622e+04 9.274736e+04 9.327972e+04 9.327972e+04 9.359173e+04 9.396385e+04 9.414433e+04 9.435307e+04 9.476299e+04 9.499234e+04 9.499234e+04 9.524109e+04 9.553722e+04 9.579766e+04 9.579766e+04 9.597014e+04 9.630345e+04 9.630345e+04 9.662229e+04 9.678736e+04 9.678736e+04 9.693362e+04 9.705359e+04 9.728435e+04 9.733198e+04 9.758378e+04 9.770435e+04 9.770435e+04 9.789829e+04 9.805180e+04 9.805180e+04 9.817432e+04 9.835358e+04 9.844229e+04 9.869890e+04 9.869890e+04 9.890254e+04 9.908109e+04 9.908109e+04 9.937029e+04 9.942358e+04 9.967270e+04 9.982137e+04 9.982137e+04 1.001532e+05 1.002771e+05 1.003368e+05 1.005719e+05 1.006643e+05 1.008659e+05 1.013250e+05 1.013250e+05 1.013250e+05 1.013250e+05 1.013250e+05 1.006097e+05 9.957781e+04 9.827189e+04 9.835213e+04 1.022412e+05 1.128217e+05 1.128217e+05 1.128217e+05 9.091664e+04 9.091664e+04 9.091664e+04 9.162531e+04 9.162531e+04 1.005600e+05 1.005600e+05 8.399168e+04 8.399168e+04 8.399168e+04 8.777970e+04 8.777970e+04 9.460116e+04 9.460116e+04 9.460116e+04 9.681984e+04 1.022412e+05 1.022412e+05 1.005939e+05 9.937159e+04 9.937159e+04 9.937159e+04 9.952818e+04 9.952818e+04 9.923987e+04 9.977472e+04 9.977472e+04 9.949528e+04 1.006097e+05 1.000086e+05 9.993774e+04 1.006991e+05 1.006991e+05 1.008928e+05 1.008928e+05 1.009758e+05 1.009816e+05 8.683124e+04 8.683124e+04 8.683124e+04 8.335034e+04 8.335034e+04 8.209650e+04 6.123247e+04 6.123247e+04 6.123247e+04 6.108678e+04 6.150813e+04 8.868049e+04 7.807114e+04 7.807114e+04 7.857687e+04 6.251702e+04 6.251702e+04 6.294737e+04 7.799557e+04 7.799557e+04 7.799557e+04 8.502989e+03 8.502989e+03 8.502989e+03 2.411120e+04 2.411120e+04 2.411120e+04 9.028485e+04 9.028485e+04 9.028485e+04 5.019238e+04 5.019238e+04 5.019238e+04 7.149573e+04 7.149573e+04 7.149573e+04 7.190938e+04 4.566885e+04 4.566885e+04 6.104500e+04 6.104500e+04 6.104500e+04 1.673250e+04 2.523104e+04 5.994716e+04 5.994716e+04 8.556382e+04 8.556382e+04 8.556382e+04 8.726362e+04 8.726362e+04 8.432447e+04 8.700514e+04 8.700514e+04 1.006676e+05 1.006676e+05 1.006676e+05 9.235911e+04 9.235911e+04 5.674496e+04 5.674496e+04 5.674496e+04 6.181400e+04 4.172726e+04 5.252632e+04 6.968355e+04 6.968355e+04 6.505929e+04 6.505929e+04 6.505929e+04 4.477559e+04 4.015466e+04 4.015466e+04 5.375320e+04 5.375320e+04 5.375320e+04 8.856150e+04 8.856150e+04 8.856150e+04 6.407536e+04 6.407536e+04 6.407536e+04 1.012564e+05 9.662253e+04 1.845668e+04 1.845668e+04 1.845668e+04 2.379985e+04 7.771703e+04 7.771703e+04 2.535499e+04 6.712150e+04 6.712150e+04 6.712150e+04 2.059763e+04 2.059763e+04 6.807332e+04 6.807332e+04 5.623431e+04 5.623431e+04 5.623431e+04 3.824427e+04 3.824427e+04 3.824427e+04 3.964643e+04 3.964643e+04 3.964643e+04 2.350369e+04 2.350369e+04 6.972942e+04 6.972942e+04 2.893186e+04 2.893186e+04 2.893186e+04 6.904284e+04 7.428154e+04 7.428154e+04 7.428154e+04 2.589028e+04 6.949320e+04 6.949320e+04 5.344790e+04 5.344790e+04 5.344790e+04 7.906066e+04 7.906066e+04 7.906066e+04 4.055423e+04 4.423811e+04 4.423811e+04 4.423811e+04 3.329366e+04 3.329366e+04 3.329366e+04 2.494897e+04 2.253211e+04 5.047089e+04 5.047089e+04 5.047089e+04 5.271807e+04 5.271807e+04 7.844716e+04 7.844716e+04 7.844716e+04 2.934864e+04 2.934864e+04 2.934864e+04 2.912031e+04 2.838058e+04 3.037338e+04 3.037338e+04 7.359766e+04 7.359766e+04 7.359766e+04 3.352975e+04 3.352975e+04 4.963109e+04 4.963109e+04 1.528817e+04 3.285299e+04 3.285299e+04 4.308220e+04 4.308220e+04 4.308220e+04 6.405954e+04 3.418418e+04 3.938467e+04 3.938467e+04 6.829520e+04 6.829520e+04 6.452806e+04 6.452806e+04 6.452806e+04 5.406859e+04 5.406859e+04 8.631370e+04 8.631370e+04 8.631370e+04 8.020213e+04 8.020213e+04 8.020213e+04 6.003749e+04 2.711241e+04 7.634535e+04 7.634535e+04 7.634535e+04 5.119294e+04 5.119294e+04 5.119294e+04 4.693936e+04 4.498925e+04 2.711241e+04 5.450313e+04 8.199241e+04 8.199241e+04 8.199241e+04 5.752588e+04 5.752588e+04 8.433751e+04 8.433751e+04 8.433751e+04 5.999322e+04 5.999322e+04 5.999322e+04 5.719481e+04 8.747641e+04 8.747641e+04 8.747641e+04 5.963086e+04 4.972163e+04 4.972163e+04 5.616898e+04 7.374810e+04 7.374810e+04 5.670348e+04 6.350464e+04 6.350464e+04 6.520736e+04 6.520736e+04 6.218732e+04 5.500061e+04 7.962927e+04 7.962927e+04 7.962927e+04 6.633055e+04 8.730760e+04 8.730760e+04 4.155451e+04 6.720187e+04 6.720187e+04 6.709686e+04 9.271058e+04 9.271058e+04 9.271058e+04 8.559502e+04 8.559502e+04 6.941373e+04 6.941373e+04 7.147988e+04 7.147988e+04 5.876959e+04 8.377838e+04 8.377838e+04 8.377838e+04 7.699929e+04 7.699929e+04 7.699929e+04 5.252632e+04 8.405959e+04 8.405959e+04 7.684956e+04 7.638109e+04 4.582502e+04 5.775536e+04 6.317131e+04 6.317131e+04 8.863196e+04 8.863196e+04 8.863196e+04 7.183101e+04 9.451511e+04 9.451511e+04 9.451511e+04 7.601673e+04 7.601673e+04 7.283894e+04 6.284609e+04 9.261018e+04 9.261018e+04 9.261018e+04 8.953447e+04 8.953447e+04 8.953447e+04 9.112820e+04 9.112820e+04 8.774072e+04 8.774072e+04 8.661227e+04 8.661227e+04 8.558226e+04 6.859279e+04 6.859279e+04 7.305122e+04 7.305122e+04 8.006755e+04 8.006755e+04 6.678230e+04 9.432966e+04 9.497790e+04 9.497790e+04 9.497790e+04 7.896675e+04 8.971392e+04 8.971392e+04 8.168287e+04 8.168287e+04 8.667709e+04 6.987094e+04 7.928715e+04 8.548403e+04 8.548403e+04 8.693296e+04 8.693296e+04 7.673485e+04 9.552044e+04 9.552044e+04 9.552044e+04 9.653714e+04 9.653714e+04 9.653714e+04 8.208783e+04 8.208783e+04 8.208783e+04 7.962674e+04 7.962674e+04 9.959883e+04 9.959883e+04 9.959883e+04 9.525714e+04 9.525714e+04 9.525714e+04 8.950364e+04 9.595471e+04 9.595471e+04 9.595471e+04 9.053639e+04 9.053639e+04 8.266562e+04 9.541230e+04 9.541230e+04 9.785905e+04 9.785905e+04 9.785905e+04 8.386478e+04 8.386478e+04 8.839331e+04 8.839331e+04 9.232391e+04 9.232391e+04 9.232391e+04 9.747013e+04 9.747013e+04 9.747013e+04 9.164438e+04 9.751785e+04 9.751785e+04 9.751785e+04 9.985399e+04 9.985399e+04 9.985399e+04 9.389543e+04 9.389543e+04 9.389543e+04 9.274987e+04 9.383847e+04 9.383847e+04 9.285127e+04 8.822402e+04 8.822402e+04 9.979040e+04 9.366204e+04 9.366204e+04 9.366204e+04 9.784277e+04 9.784277e+04 9.784277e+04 9.419190e+04 9.419190e+04 9.419190e+04 9.608671e+04 9.608671e+04 