<?xml version="1.0"?>
 <VTKFile type="UnstructuredGrid" version="1.0" byte_order="LittleEndian" header_type="UInt64">
  <UnstructuredGrid>
    <FieldData>
     <DataArray type="Float64" Name="TimeValue" NumberOfTuples="1" format="ascii">
0.00021
     </DataArray>
    </FieldData>
   <Piece NumberOfPoints="3548" NumberOfCells="3379">
    <PointData>
     <DataArray type="Float64" Name="pointP" format="ascii">
-2.627472e+04 -3.116307e+04 -3.624662e+04 -4.057030e+04 -4.541002e+04 -4.987597e+04 -5.467598e+04 -5.968085e+04 -6.549701e+04 -7.068568e+04 -7.394259e+04 -7.785320e+04 -7.968158e+04 -8.475722e+04 -8.818351e+04 -9.214084e+04 -9.611191e+04 -9.761124e+04 -1.003762e+05 -1.039960e+05 -1.079064e+05 -1.095982e+05 -1.129335e+05 -1.181946e+05 -1.204009e+05 -1.214428e+05 -1.231746e+05 -1.273298e+05 -1.325508e+05 -1.319259e+05 -1.336569e+05 -1.361696e+05 -1.392339e+05 -1.422305e+05 -1.456238e+05 -1.507665e+05 -1.507704e+05 -1.504547e+05 -1.536762e+05 -1.498476e+05 -1.529199e+05 -1.571975e+05 -1.568931e+05 -1.574378e+05 -1.620320e+05 -1.597214e+05 -1.615650e+05 -1.627985e+05 -1.632772e+05 -1.710854e+05 -1.677396e+05 -1.729154e+05 -1.751580e+05 -1.740188e+05 -1.739539e+05 -1.757263e+05 -1.745768e+05 -1.769556e+05 -1.741654e+05 -1.801493e+05 -1.755706e+05 -1.725738e+05 -1.761826e+05 -1.839098e+05 -1.936682e+05 -1.908597e+05 -1.879486e+05 -1.808316e+05 -1.795150e+05 -1.766769e+05 -1.819186e+05 -1.811707e+05 -1.805677e+05 -1.847680e+05 -1.840100e+05 -1.887735e+05 -1.871311e+05 -2.213709e+05 -2.401801e+05 -2.391659e+05 -2.363722e+05 -2.363722e+05 -2.334973e+05 -2.260602e+05 -2.214402e+05 -2.166395e+05 -2.166395e+05 -2.089799e+05 -2.000143e+05 -1.948421e+05 -1.907276e+05 -1.894358e+05 -1.830790e+05 -1.813451e+05 -1.776561e+05 -1.700896e+05 -1.657825e+05 -1.615196e+05 -1.548674e+05 -1.511400e+05 -1.470886e+05 -1.406341e+05 -1.406341e+05 -1.354184e+05 -1.279512e+05 -1.261271e+05 -1.221984e+05 -1.192260e+05 -1.153637e+05 -1.095336e+05 -1.040204e+05 -1.023696e+05 -9.965487e+04 -9.463113e+04 -9.263329e+04 -8.565446e+04 -8.403354e+04 -8.106708e+04 -7.786374e+04 -7.620728e+04 -6.993200e+04 -6.893136e+04 -6.459149e+04 -6.164356e+04 -5.944811e+04 -5.467954e+04 -5.358627e+04 -4.791829e+04 -4.791829e+04 -4.507986e+04 -4.099419e+04 -3.566396e+04 -3.566396e+04 -3.145406e+04 -2.790074e+04 -2.790074e+04 -2.438424e+04 -2.129148e+04 -1.933602e+04 -1.574409e+04 -1.574409e+04 -1.146186e+04 -1.146186e+04 -9.409794e+03 -9.018445e+03 -3.911509e+04 5.470467e+03 5.321609e+03 6.819832e+03 6.819832e+03 9.367946e+03 1.129992e+04 1.308996e+04 1.612702e+04 1.612702e+04 -6.991192e+03 -6.991192e+03 -6.991192e+03 -5.173484e+03 6.239206e+04 6.239206e+04 6.239206e+04 2.387494e+04 2.387494e+04 2.387494e+04 3.591940e+04 -3.857264e+04 -3.857264e+04 -3.857264e+04 -4.614286e+04 -8.636579e+04 -8.636579e+04 -8.636579e+04 -9.535960e+04 -2.025749e+05 -2.025749e+05 -2.025749e+05 -2.002085e+05 -1.944491e+05 -1.793064e+05 -1.793064e+05 -1.793064e+05 -1.746556e+05 -5.820110e+03 -5.820110e+03 -5.820110e+03 -7.757020e+04 -7.757020e+04 -7.757020e+04 -7.430258e+04 -7.560112e+04 -2.172967e+05 -2.172967e+05 -2.172967e+05 -2.209261e+05 -3.660775e+04 -3.660775e+04 -3.660775e+04 -2.729543e+04 -2.729543e+04 -1.371606e+05 -1.371606e+05 -1.371606e+05 -1.395494e+05 -1.439472e+05 -1.843541e+05 -1.843541e+05 -1.843541e+05 -1.863703e+05 -1.946275e+05 -1.325140e+05 -1.325140e+05 -1.325140e+05 -1.343460e+05 -2.111645e+05 -2.111645e+05 -2.111645e+05 -3.381125e+04 -3.381125e+04 -1.190991e+05 -1.190991e+05 -1.674918e+05 -1.674918e+05 -1.674918e+05 -1.573630e+05 -2.024077e+05 -2.024077e+05 -2.024077e+05 -1.837856e+05 -2.353901e+05 -2.353901e+05 -2.442670e+05 -2.442670e+05 -1.878728e+05 -1.878728e+05 -1.878728e+05 -1.837223e+05 -1.837223e+05 -2.323683e+05 -2.323683e+05 -2.323683e+05 -2.289806e+05 -2.289806e+05 -2.444895e+04 -1.901491e+05 -1.901491e+05 -1.901491e+05 -1.860147e+05 -6.462935e+04 -6.462935e+04 -6.462935e+04 -6.732073e+04 -6.732073e+04 -1.058639e+05 -1.058639e+05 -1.058639e+05 -9.641560e+04 -9.641560e+04 -1.386123e+05 -1.386123e+05 -1.386123e+05 -1.386927e+05 -1.386927e+05 -1.606718e+05 -1.606718e+05 -1.606718e+05 -1.515596e+05 -1.515596e+05 -2.203093e+04 -2.203093e+04 -2.203093e+04 -2.050488e+04 -3.851611e+04 -3.851611e+04 -3.851611e+04 -4.437492e+04 -1.129412e+05 -1.129412e+05 -1.129412e+05 -1.222481e+05 -1.222481e+05 2.802481e+04 2.802481e+04 2.802481e+04 -1.777626e+04 -1.777626e+04 -1.777626e+04 -3.712079e+03 -3.712079e+03 5.015270e+04 5.015270e+04 5.015270e+04 9.797083e+04 9.797083e+04 -4.783145e+04 -4.783145e+04 -4.783145e+04 -3.434894e+04 -1.139629e+05 -1.139629e+05 -1.838731e+05 -1.838731e+05 -1.838731e+05 -6.254017e+04 -6.254017e+04 -5.137896e+04 -5.137896e+04 -4.432249e+04 -4.432249e+04 -4.432249e+04 -4.449929e+04 -2.291710e+05 -2.291710e+05 -2.291710e+05 -2.261279e+05 -4.366430e+04 -4.366430e+04 -2.247915e+05 -2.247915e+05 -2.247915e+05 -1.093924e+05 -1.093924e+05 -1.093924e+05 -1.127444e+05 -1.127444e+05 -2.388559e+05 -2.388559e+05 -2.388559e+05 -2.397140e+05 -2.397140e+05 -2.177970e+05 -2.177970e+05 -2.128112e+05 -2.164444e+05 -2.164444e+05 -2.164444e+05 -9.904168e+04 -9.904168e+04 -1.325508e+05 -1.953695e+05 -1.953695e+05 -1.953695e+05 -1.885096e+05 -1.269911e+05 -1.229173e+05 -1.856735e+05 -1.856735e+05 -1.856735e+05 -2.086999e+05 -2.086999e+05 -2.086999e+05 -2.151244e+05 -2.151244e+05 -2.151244e+05 -2.134936e+05 -2.134936e+05 -2.134936e+05 -2.083278e+05 -2.083278e+05 -1.879583e+05 -1.879583e+05 -1.879583e+05 -1.942770e+05 -1.942770e+05 -1.806427e+05 -1.806427e+05 -1.761338e+05 -1.761338e+05 -1.895153e+05 -1.895153e+05 -1.843013e+05 -4.145205e+04 -4.145205e+04 -3.973964e+04 -3.973964e+04 -2.576712e+04 -2.576712e+04 8.127657e+04 7.499137e+04 8.127657e+04 8.127657e+04 -7.795775e+04 -9.472622e+04 -9.472622e+04 -1.771964e+05 -1.771964e+05 -1.771964e+05 -1.873702e+05 -1.873702e+05 -1.873702e+05 -4.866690e+04 -1.153028e+05 -1.153028e+05 -1.159731e+05 -1.159731e+05 -1.186230e+05 -9.767686e+04 -1.250679e+05 -1.725738e+05 -2.156882e+05 -2.156882e+05 -1.728718e+05 -1.728718e+05 -1.601839e+05 -1.336569e+05 -1.510103e+05 -1.510103e+05 -2.175733e+05 -2.175733e+05 -2.175733e+05 -1.943521e+05 -2.232296e+05 -4.541002e+04 -4.525068e+04 -4.525068e+04 -1.456238e+05 -1.601034e+05 -1.601034e+05 -2.444895e+04 -1.085064e+05 -1.085064e+05 -1.462095e+05 -6.711124e+04 -6.711124e+04 -6.711124e+04 -1.841350e+05 -1.689730e+05 -1.689730e+05 -1.600706e+05 -9.395891e+04 -9.395891e+04 -9.395891e+04 -8.510238e+04 -8.510238e+04 -9.024778e+04 -7.344004e+04 -7.344004e+04 -1.434716e+05 -5.968085e+04 -5.742277e+04 -2.024063e+05 -2.024063e+05 -2.200665e+05 -2.067308e+05 -2.120817e+05 -2.120817e+05 -2.066334e+05 -1.745768e+05 -2.014562e+05 -2.014562e+05 -1.780549e+05 -4.987597e+04 -4.965344e+04 -2.163373e+05 -1.337864e+05 -1.938111e+05 -7.651001e+04 -7.651001e+04 -1.884451e+05 -1.905889e+05 -2.254610e+05 -1.816112e+05 -1.816112e+05 -1.816112e+05 -1.767634e+05 -1.767634e+05 -4.134305e+04 -4.134305e+04 -1.375850e+05 -7.831635e+04 -8.319899e+04 -2.412260e+05 -2.083724e+05 -2.083724e+05 -3.597530e+04 -1.172383e+05 -1.699497e+05 -1.892803e+05 -4.500036e+04 -1.626052e+05 -1.522691e+05 -1.739682e+05 -1.759889e+05 -1.759889e+05 -1.302051e+05 -2.159292e+05 -1.884792e+05 -1.925982e+05 -2.422437e+05 -5.192265e+04 -5.192265e+04 -5.469326e+04 -1.708040e+05 -1.674928e+05 -1.674928e+05 -2.121433e+05 -7.489067e+04 -7.489067e+04 -7.489067e+04 -7.757267e+04 -2.441623e+05 -2.285013e+05 -9.791655e+04 -9.791655e+04 -9.791655e+04 -1.035443e+05 -2.003160e+05 -1.958372e+05 -2.177244e+05 -2.177244e+05 -1.405341e+05 -1.430792e+05 -1.540671e+05 -1.532123e+05 -1.993240e+05 -6.967155e+04 -2.107764e+05 -2.058783e+05 -2.058783e+05 -2.069001e+05 -2.069001e+05 -2.217112e+05 -2.217112e+05 -1.295545e+05 -1.295545e+05 -2.206721e+05 -1.845128e+05 -5.748119e+04 -5.748119e+04 -1.021582e+05 -1.021582e+05 -8.762745e+04 -1.970001e+05 -8.399094e+04 -8.966355e+04 -1.794270e+05 -1.779365e+05 -2.399388e+05 -2.399388e+05 -2.326329e+05 -2.339961e+05 -4.195041e+04 -2.352265e+05 -2.352265e+05 -1.749485e+05 -1.708331e+05 -2.413422e+05 -2.414407e+05 -2.373193e+05 -1.641322e+05 -2.166655e+05 -7.685901e+04 -7.685901e+04 -1.577153e+05 -3.519467e+04 -2.225364e+05 -1.936357e+05 -5.393976e+04 -1.390512e+05 -1.390512e+05 -1.390512e+05 -1.346750e+05 -1.346750e+05 -1.476915e+05 -1.502801e+05 -1.166144e+05 -1.224152e+05 -1.960840e+05 -2.417007e+05 -9.428862e+04 -1.814114e+05 -2.405874e+05 -1.411722e+05 -2.071030e+05 -2.312898e+05 -2.312898e+05 -2.312898e+05 -1.578697e+05 -1.565638e+05 -9.584141e+04 -9.189720e+04 -2.326295e+05 -2.326295e+05 -2.001532e+05 -2.045861e+05 -2.045861e+05 -2.090000e+05 -2.090000e+05 -1.055316e+05 -2.172979e+05 -2.144374e+05 -2.144374e+05 -1.274487e+05 -1.274487e+05 -9.072824e+04 -1.183949e+05 -1.183949e+05 -1.199876e+05 -2.181270e+05 -2.181270e+05 -2.213807e+05 -2.213807e+05 -2.213807e+05 -2.253856e+05 -9.903652e+04 -3.535228e+04 -1.740009e+05 -1.740009e+05 -1.708035e+05 -2.680172e+04 -1.132329e+05 -1.039348e+05 -1.927162e+05 -2.319046e+05 -8.069853e+04 -7.689235e+04 -1.565514e+05 -1.565514e+05 -8.281340e+04 -8.281340e+04 -1.500069e+05 -2.111626e+05 -1.996190e+05 -1.996190e+05 -1.172456e+05 -1.090145e+05 -2.680172e+04 -1.183012e+05 -1.338842e+05 -1.338842e+05 -7.414247e+04 -2.035299e+05 -2.035299e+05 -2.193610e+05 -2.099126e+05 -2.099126e+05 -3.144230e+04 -3.144230e+04 -3.829352e+04 -1.248422e+05 -1.248422e+05 -1.248422e+05 -1.308640e+05 -2.184440e+05 -5.006734e+04 -2.147219e+04 -1.131976e+05 -1.131976e+05 -1.623042e+05 -1.623042e+05 -1.703986e+05 -2.668318e+04 -1.859908e+05 -1.956271e+05 -1.956271e+05 -1.214546e+05 -2.114471e+05 -2.114471e+05 -2.000876e+05 -1.836651e+05 -1.055143e+05 -1.648902e+05 -1.648902e+05 -1.648902e+05 -5.237896e+04 -6.356716e+04 -1.492716e+05 -1.381155e+05 -1.381155e+05 -1.424346e+05 -1.424346e+05 -1.424346e+05 -1.548560e+05 -1.972338e+05 -1.119411e+05 -1.119411e+05 -1.016206e+05 -1.869064e+05 -1.514141e+05 -1.514141e+05 -1.514141e+05 -1.520033e+05 -1.295479e+05 -1.246823e+05 -3.379030e+03 -2.167527e+04 -3.531138e+04 -6.675057e+04 -1.117051e+05 -9.886546e+04 -8.693090e+04 -8.693090e+04 -1.627864e+05 -1.627864e+05 -1.770800e+05 -1.744705e+05 -8.032613e+04 -8.032613e+04 -8.032613e+04 -1.598105e+05 -2.725198e+04 -1.405214e+05 -7.648653e+03 -1.042258e+04 -9.491639e+04 -8.747292e+04 -1.548251e+05 -1.714184e+05 -1.543486e+05 -1.400379e+05 -1.400379e+05 -5.679399e+04 -5.679399e+04 -5.679399e+04 3.667498e+04 -9.450067e+04 -8.539880e+04 -8.406295e+04 -5.746627e+04 -7.553109e+04 -6.561864e+04 3.723177e+02 -3.006918e+04 -1.066778e+05 -1.066778e+05 -1.066778e+05 -1.275166e+05 -1.337377e+05 -3.874836e+04 -3.874836e+04 -8.601221e+04 -8.601221e+04 -1.704222e+04 2.729795e+04 -6.530091e+04 6.435986e+04 -6.035299e+04 9.090286e+04 -2.754951e+03 -2.754951e+03 2.926553e+04 5.898899e+04 5.898899e+04 1.278714e+04 1.278714e+04 1.652383e+04 1.652383e+04 -1.734106e+04 3.632152e+04 3.632152e+04 1.945759e+04 5.161397e+04 6.767760e+04 7.505858e+04 8.555720e+02 8.555720e+02 8.555720e+02 -1.820860e+05 -1.820860e+05 -1.820860e+05 -1.839740e+05 -1.839740e+05 4.327544e+03 4.327544e+03 4.327544e+03 2.100269e+04 -1.886949e+05 -1.886949e+05 -1.857061e+05 -1.857061e+05 -2.340458e+05 -2.340458e+05 -2.340458e+05 5.824534e+02 5.824534e+02 5.824534e+02 -1.833446e+03 -7.992462e+04 -7.992462e+04 -7.992462e+04 -7.324057e+04 -6.140753e+04 -6.140753e+04 -1.073548e+05 -1.073548e+05 -1.073548e+05 -1.270638e+05 -1.270638e+05 -1.270638e+05 -1.610942e+05 -1.610942e+05 -1.610942e+05 -1.681246e+05 -1.681246e+05 -1.681246e+05 -1.711642e+05 -3.477728e+04 -3.477728e+04 -3.477728e+04 -5.707046e+04 -5.707046e+04 -5.707046e+04 -2.362567e+04 -2.362567e+04 -2.362567e+04 -3.788298e+04 -3.788298e+04 -3.788298e+04 -4.527177e+04 -4.527177e+04 2.102110e+04 2.102110e+04 1.533195e+04 -5.015599e+03 4.110298e+04 4.110298e+04 4.110298e+04 -3.437051e+04 -3.437051e+04 -1.154088e+05 -1.154088e+05 -1.154088e+05 -8.644692e+04 -8.644692e+04 -8.644692e+04 -1.220266e+05 -1.220266e+05 -1.220266e+05 -1.265465e+05 -1.385719e+05 -1.385719e+05 -1.385719e+05 -1.361862e+05 -1.420916e+05 -1.420916e+05 -1.420916e+05 -1.187134e+05 -1.187134e+05 -1.187134e+05 -1.193960e+05 -1.222758e+05 -9.085275e+04 -9.085275e+04 -9.085275e+04 -1.435002e+05 -1.435002e+05 -1.294781e+05 -1.294781e+05 -1.254397e+05 -1.137872e+05 -1.137872e+05 -7.439888e+04 -7.439888e+04 -7.439888e+04 -6.138920e+04 -6.138920e+04 -6.325169e+04 -6.325169e+04 -6.325169e+04 -1.225257e+05 -4.134822e+04 -4.134822e+04 -4.134822e+04 3.243243e+03 7.103630e+03 6.697365e+04 6.697365e+04 2.864868e+04 2.864868e+04 -6.429659e+04 -6.429659e+04 -6.429659e+04 -5.937469e+04 -5.450349e+04 -1.795521e+05 -1.795521e+05 -1.214738e+05 -1.889599e+05 -1.464607e+05 -1.464607e+05 -1.464607e+05 -1.053903e+05 -1.656676e+05 -1.656676e+05 -1.201642e+05 -9.409431e+04 -9.409431e+04 -9.349490e+04 -4.415520e+04 -4.415520e+04 -8.507764e+04 -8.507764e+04 -8.507764e+04 -2.093603e+05 -2.093603e+05 -2.093603e+05 -1.724447e+05 -1.758906e+05 -4.514395e+04 -1.947779e+05 -1.947779e+05 -1.947779e+05 -2.014554e+05 -1.485024e+05 -1.485024e+05 -7.405097e+04 -7.405097e+04 -1.095079e+05 -1.631933e+05 -1.631933e+05 -1.566666e+05 -1.566666e+05 -1.046722e+05 -1.046722e+05 -1.046722e+05 -2.293978e+04 -2.293978e+04 -1.751289e+03 -1.751289e+03 -1.338452e+05 -9.527265e+04 -9.527265e+04 -9.527265e+04 -1.117996e+05 -1.117996e+05 -5.957077e+04 -5.957077e+04 -1.809728e+05 -1.809728e+05 -1.265683e+04 -1.265683e+04 -9.983697e+04 -7.808833e+04 -7.808833e+04 -7.782629e+04 -7.782629e+04 -1.577258e+05 -1.577258e+05 -1.577258e+05 -8.344302e+04 -8.344302e+04 -8.344302e+04 -1.662474e+05 -1.278798e+05 -1.125281e+05 -1.062849e+05 -1.062849e+05 -1.025744e+05 -1.501235e+05 -7.080382e+04 -7.080382e+04 -5.465173e+04 -5.465173e+04 -5.465173e+04 -1.714305e+05 -1.697387e+05 -1.697387e+05 -5.241876e+04 -5.241876e+04 -4.970613e+04 -7.815586e+04 -7.908630e+04 -7.908630e+04 -1.853586e+04 -1.853586e+04 -1.853586e+04 -4.522706e+04 -4.522706e+04 -8.319281e+03 -6.357889e+04 -1.035326e+05 -1.035326e+05 1.732120e+04 -1.126518e+05 -1.126518e+05 -9.723440e+04 -8.831496e+04 -8.831496e+04 -8.850354e+04 -3.169391e+04 -3.169391e+04 -1.210288e+05 -1.210288e+05 -4.429450e+04 -8.859121e+04 -8.859121e+04 -7.393182e+04 -7.393182e+04 -7.145380e+04 -4.832469e+04 -1.001864e+05 -1.001864e+05 -6.895640e+04 -7.686053e+04 -1.523185e+05 -1.523185e+05 -1.052952e+05 -9.179116e+04 -1.440811e+04 -1.440811e+04 -1.440811e+04 -3.111458e+04 -3.111458e+04 -3.111458e+04 -6.351616e+04 -6.351616e+04 -1.859412e+04 -1.859412e+04 -1.859412e+04 -8.350651e+04 -1.405296e+04 -3.158469e+04 -2.846401e+04 -8.109733e+03 -8.109733e+03 -8.109733e+03 -6.823117e+04 -3.937294e+04 -3.937294e+04 -4.794128e+04 -4.794128e+04 -4.794128e+04 1.784428e+04 -7.508475e+04 -4.355794e+04 -4.355794e+04 -3.142066e+04 -3.142066e+04 -3.142066e+04 -3.695281e+04 -7.825316e+03 -1.059481e+05 -1.059481e+05 -1.059481e+05 -9.521155e+04 -9.521155e+04 -8.919748e+04 1.854952e+04 -2.233654e+04 -5.498664e+04 -2.767246e+04 -2.767246e+04 -2.044276e+04 -1.897959e+04 -1.897959e+04 5.958466e+02 5.958466e+02 5.958466e+02 -3.916019e+04 -3.728340e+04 -7.693128e+04 -1.163103e+04 7.275831e+03 -1.492194e+04 -7.094579e+04 2.256216e+04 2.256216e+04 2.231484e+04 -3.895373e+04 -3.895373e+04 -2.519103e+04 1.216875e+04 1.216875e+04 1.216875e+04 5.625722e+03 5.625722e+03 -5.150720e+04 -5.150720e+04 -4.700050e+04 2.694628e+04 2.694628e+04 -1.571393e+04 -3.533565e+04 -2.521524e+04 9.784869e+03 2.467160e+04 4.707071e+03 -1.743275e+04 2.467160e+04 4.601482e+04 -2.282392e+05 -2.282392e+05 -1.484629e+05 -1.484629e+05 -2.153968e+05 -2.153968e+05 -1.589755e+05 -1.758010e+05 -2.162951e+05 -2.238133e+05 -2.376156e+05 4.138338e+04 4.138338e+04 -1.269571e+04 -1.153582e+05 -1.209762e+05 1.991206e+04 1.991206e+04 -2.251952e+05 -2.219854e+05 -2.335327e+05 -2.267449e+05 -2.267449e+05 -2.267449e+05 -2.099075e+05 -2.099075e+05 -2.099075e+05 -2.300676e+05 -2.038597e+05 -2.038597e+05 -2.004034e+05 -2.004034e+05 -2.216203e+05 -2.144393e+05 -2.146675e+05 -4.637250e+04 3.876696e+04 5.312718e+04 6.702469e+04 -3.048409e+04 -3.048409e+04 -6.723381e+04 -1.912160e+05 -2.196539e+05 -2.009222e+05 -1.954245e+05 -1.954245e+05 -1.695332e+05 -1.348003e+05 -9.758753e+04 -7.162658e+04 -7.162658e+04 -4.671348e+04 4.080653e+03 1.035752e+04 1.690981e+04 1.690981e+04 1.690981e+04 -5.184628e+04 -2.813026e+04 -3.460189e+04 -3.460189e+04 -1.424058e+05 -5.199140e+04 -5.199140e+04 -9.933272e+04 -1.351785e+05 -8.216665e+04 -8.216665e+04 1.348466e+04 1.348466e+04 1.348466e+04 1.023438e+04 1.023438e+04 1.617410e+04 -8.980325e+04 -7.931652e+04 -6.626008e+04 -3.856886e+04 5.925535e+03 -1.546761e+05 -1.153806e+05 -1.135347e+05 -3.996247e+04 -8.835652e+04 -2.578610e+04 -5.792546e+04 -2.910330e+04 -2.910330e+04 -9.675995e+03 -4.011430e+04 -3.018196e+04 -1.125633e+04 -3.743968e+04 1.382648e+04 6.112628e+03 6.112628e+03 6.952919e+03 -1.370244e+04 4.684674e+03 -3.704156e+04 -3.704156e+04 -4.714772e+04 -4.866389e+04 -2.020171e+04 -2.373828e+04 -3.512993e+03 -1.759136e+04 6.189568e+03 -3.993952e+04 -1.954725e+03 -1.954725e+03 -1.954725e+03 4.258681e+03 -1.855104e+02 -1.855104e+02 -1.792377e+04 -1.792377e+04 -7.441685e+03 -1.018268e+04 -1.018268e+04 1.387731e+04 -1.574818e+04 -7.265484e+03 -1.221321e+04 1.462073e+04 8.988843e+03 1.732120e+04 1.732120e+04 1.533561e+04 -4.491921e+04 1.270061e+03 1.270061e+03 1.162255e+04 1.162255e+04 1.790223e+04 1.526846e+04 1.664589e+04 1.249328e+04 1.249328e+04 -1.946503e+05 -1.946503e+05 -1.884786e+05 -1.778242e+05 -1.741158e+05 -1.888704e+05 -1.857262e+05 -1.799016e+05 -2.026784e+05 -2.026784e+05 -2.026784e+05 -2.081768e+05 -2.252677e+05 -2.252677e+05 -2.252677e+05 -2.258782e+05 -2.040995e+05 -2.040995e+05 -2.168246e+05 -2.168246e+05 -1.998837e+05 -2.206542e+05 -2.206542e+05 -2.206542e+05 -1.947228e+05 -2.291260e+05 -2.291260e+05 -2.291260e+05 -2.298134e+05 -2.284964e+05 -2.264183e+05 -2.174994e+05 -2.174994e+05 -2.364613e+05 -2.147318e+05 -2.147318e+05 -2.147318e+05 -2.392100e+05 -2.392100e+05 -2.392100e+05 -2.387871e+05 -2.387871e+05 -2.409253e+05 -2.332320e+05 -2.251313e+05 -2.229801e+05 -2.229801e+05 -2.340496e+05 -2.401801e+05 -2.376321e+05 -2.376321e+05 -2.376321e+05 -2.354111e+05 -2.354111e+05 -2.409253e+05 -2.392909e+05 -2.432557e+05 -2.359207e+05 -2.432805e+05 -2.432805e+05 -2.411391e+05 -2.391766e+05 -2.368254e+05 -2.309419e+05 -2.272469e+05 -2.109894e+05 -2.109894e+05 -1.958901e+05 -1.832156e+05 -1.659397e+05 -1.659397e+05 -1.659397e+05 -1.503074e+05 -1.503074e+05 -1.155744e+05 -9.066660e+04 -9.066660e+04 -3.584659e+03 -7.562131e+04 -7.562131e+04 -7.562131e+04 -7.489228e+04 -7.489228e+04 -1.001654e+05 -1.001654e+05 -1.001654e+05 -1.907276e+05 -1.907276e+05 -7.114240e+04 1.122260e+04 1.122260e+04 1.122260e+04 -1.208053e+05 -1.208053e+05 -1.208053e+05 -1.154655e+05 -1.131000e+05 -2.047438e+04 -2.047438e+04 -2.047438e+04 -1.372047e+05 -1.372047e+05 -1.372047e+05 -1.930952e+05 -1.930952e+05 -1.930952e+05 -1.919560e+05 -1.919560e+05 -1.668678e+05 -1.668678e+05 -1.668678e+05 -1.002181e+05 -1.002181e+05 -1.769677e+05 -1.769677e+05 -1.769677e+05 -1.744045e+05 -1.744045e+05 -1.516690e+05 -1.516690e+05 -1.516690e+05 -2.644442e+04 -2.644442e+04 -2.644442e+04 -1.377296e+05 -1.377296e+05 -1.377296e+05 -1.479275e+05 -1.479275e+05 -3.131062e+04 -3.131062e+04 -3.131062e+04 -2.376616e+04 -2.376616e+04 4.998873e+04 2.999604e+03 2.999604e+03 2.999604e+03 6.716845e+03 -4.896648e+04 -4.896648e+04 -4.896648e+04 -4.220960e+04 -7.892797e+03 -7.892797e+03 -7.892797e+03 -1.062419e+05 -1.167140e+05 -9.208539e+04 -9.208539e+04 -9.208539e+04 -9.612660e+04 6.389161e+02 6.389161e+02 6.389161e+02 -1.632610e+05 -1.632610e+05 -1.632610e+05 -1.563551e+05 -1.563551e+05 -1.371956e+05 -1.371956e+05 -1.371956e+05 -1.393061e+05 -1.517934e+05 -1.517934e+05 -1.415420e+05 -1.415420e+05 -1.700896e+05 -1.652224e+05 -1.626998e+05 -1.026141e+05 -2.357804e+05 -1.686613e+05 -1.832156e+05 -1.852962e+05 -1.852962e+05 -1.632411e+04 -1.632411e+04 -1.632411e+04 -8.481174e+04 -8.481174e+04 2.156179e+04 2.156179e+04 2.156179e+04 -1.964206e+05 -1.964206e+05 -1.964206e+05 -6.164356e+04 -6.164356e+04 -1.261271e+05 -1.261271e+05 -8.998043e+04 -8.998043e+04 -8.998043e+04 -1.197230e+05 -1.197230e+05 -1.197230e+05 -1.336693e+05 -1.336693e+05 -1.336693e+05 -1.992564e+05 -3.145406e+04 -3.145406e+04 -1.095336e+05 -1.095336e+05 -9.463113e+04 -9.463113e+04 -1.555727e+05 -1.555727e+05 -1.602270e+05 -1.827975e+05 -1.827975e+05 -1.827975e+05 -1.817458e+05 -2.332466e+05 -2.292786e+05 -1.681223e+05 -5.728158e+04 -5.728158e+04 -5.728158e+04 -1.447496e+05 -1.447496e+05 -2.010906e+05 -2.010906e+05 -2.077264e+05 -2.077264e+05 -2.078656e+05 -2.078656e+05 -1.246278e+05 -1.246278e+05 -1.322608e+05 -1.793964e+05 -1.793964e+05 -7.016795e+04 -7.016795e+04 -7.016795e+04 -1.401666e+05 -1.319947e+05 -1.651040e+05 -8.207529e+04 -8.207529e+04 -8.207529e+04 -8.659161e+04 -8.659161e+04 -8.659161e+04 -1.072998e+05 -6.018283e+04 -6.018283e+04 -6.018283e+04 -5.083599e+04 -5.083599e+04 -5.083599e+04 -1.163847e+05 -1.163847e+05 -1.955651e+05 -1.881664e+05 -9.153266e+04 -9.153266e+04 -9.999644e+04 -9.999644e+04 -1.029654e+05 -9.842737e+04 -1.502270e+05 -1.134326e+05 -1.176246e+05 -1.176246e+05 -1.228575e+05 -8.227846e+04 -5.357869e+04 -5.357869e+04 -1.560495e+05 -1.609854e+05 -7.826938e+04 -7.826938e+04 -5.818080e+04 -1.032322e+05 -1.032322e+05 -1.094573e+05 -6.622018e+04 -6.622018e+04 -6.622018e+04 -9.853966e+04 -9.463978e+04 -7.050482e+04 -7.050482e+04 -7.050482e+04 -4.735331e+04 -4.735331e+04 -1.733291e+05 -1.125205e+05 -1.312654e+05 -1.312654e+05 -1.275754e+05 -3.125842e+04 -1.118365e+05 -1.118365e+05 -1.118365e+05 -1.092491e+05 -1.035590e+05 -2.232199e+04 -2.232199e+04 -2.232199e+04 -2.713586e+04 -4.457390e+04 -4.457390e+04 -4.437430e+04 -4.437430e+04 -8.397294e+04 -1.225451e+05 -1.114431e+05 -1.174821e+05 -7.760338e+04 -7.760338e+04 -7.760338e+04 -7.492435e+04 -7.492435e+04 -3.210407e+04 -3.210407e+04 -3.210407e+04 -1.037708e+05 -4.410533e+04 -4.015743e+04 -4.015743e+04 -6.974777e+04 -6.974777e+04 -8.616926e+04 -9.335367e+04 -5.582852e+04 -5.582852e+04 -5.582852e+04 -2.343022e+04 -2.343022e+04 -6.905505e+03 -6.905505e+03 -6.905505e+03 -5.261467e+04 -5.261467e+04 -5.914372e+04 -3.980542e+04 -3.980542e+04 7.899182e+03 7.899182e+03 5.407216e+03 5.407216e+03 -6.082529e+04 -7.078420e+04 -7.078420e+04 1.034963e+03 1.034963e+03 -8.698528e+04 -3.434970e+04 -3.854061e+04 -3.854061e+04 -5.686239e+04 -2.667115e+04 -2.667115e+04 -4.917502e+04 -4.917502e+04 -4.917502e+04 -4.310464e+04 -4.077764e+03 -4.077764e+03 -4.077764e+03 -1.580709e+04 -7.459554e+03 -9.862727e+04 -9.862727e+04 -9.862727e+04 -7.019151e+04 -3.557711e+04 -2.040326e+04 -3.280093e+04 -4.178741e+04 -5.750686e+04 -8.125150e+04 -1.505839e+04 -1.505839e+04 -4.966775e+03 1.952416e+04 1.952416e+04 1.952416e+04 -1.870238e+04 -1.831412e+04 -6.559033e+04 -1.382253e+04 -9.645696e+03 -9.849374e+03 -6.171596e+04 -1.630846e+03 -1.630846e+03 -1.584223e+04 -5.059118e+04 2.479366e+04 2.424684e+04 -3.986692e+04 -3.986692e+04 -2.936271e+04 5.509660e+03 2.479366e+04 1.021135e+04 1.021135e+04 1.021135e+04 1.190513e+04 -3.551699e+04 -1.086219e+04 2.770102e+04 1.787511e+04 1.787511e+04 1.787511e+04 1.243921e+04 1.243921e+04 2.770102e+04 -3.554883e+03 -3.554883e+03 2.479123e+04 -1.354224e+04 -1.354224e+04 -1.507709e+04 -2.904527e+03 3.057520e+04 3.057520e+04 3.057520e+04 6.471992e+03 1.155396e+04 1.155396e+04 2.544083e+04 -3.584659e+03 -3.584659e+03 3.293731e+04 2.737753e+04 2.917690e+04 1.966719e+04 1.966719e+04 1.696342e+04 3.681940e+04 3.640288e+04 3.640288e+04 4.173933e+04 3.293731e+04 3.293731e+04 3.906742e+04 -1.023696e+05 -1.776561e+05 -2.166395e+05 -2.334973e+05 -2.334973e+05 -1.221984e+05 -1.516009e+05 -1.516009e+05 -1.819544e+05 -1.841298e+05 -2.089799e+05 -2.089799e+05 -2.214402e+05 -1.872866e+05 -2.331120e+05 -2.251954e+05 -2.109775e+05 -7.363780e+04 -2.326536e+04 8.890636e+03 -1.301243e+05 -2.227392e+05 -2.193925e+05 -1.916756e+05 -4.538553e+04 -4.524534e+04 4.224230e+03 4.165147e+03 -1.324833e+05 2.344417e+03 -1.406496e+05 5.364622e+03 1.526544e+04 1.526544e+04 1.526544e+04 -1.186684e+04 -8.403354e+04 -8.403354e+04 -7.984628e+04 -1.368436e+05 -1.470886e+05 -1.203789e+05 -6.459149e+04 -1.153637e+05 -8.106708e+04 -4.791829e+04 -4.099419e+04 -4.099419e+04 -2.790074e+04 -1.574409e+04 -7.786374e+04 -4.925737e+04 -4.925737e+04 -7.475694e+04 -5.467954e+04 -1.146186e+04 -4.655218e+04 -1.442807e+04 -9.409794e+03 -3.938705e+04 -1.622257e+04 -1.933602e+04 -1.933602e+04 -3.566396e+04 -2.438424e+04 -2.706008e+04 6.819832e+03 9.367946e+03 9.367946e+03 -9.018445e+03 -4.364109e+04 5.470467e+03 5.470467e+03 -1.895099e+04 1.112112e+04 1.112112e+04 6.008432e+03 6.008432e+03 -9.814642e+03 -3.911509e+04 -1.519752e+04 -1.689138e+04 1.604073e+04 1.604073e+04 1.604073e+04 -3.586714e+04 -8.246049e+03 5.321609e+03 1.505280e+04 -1.226367e+04 -3.618484e+04 -3.010816e+04 5.229696e+03 -2.384110e+04 -5.218243e+01 -5.218243e+01 -3.084613e+03 1.160193e+04 1.160193e+04 -9.351118e+03 -9.351118e+03 -1.152618e+04 -6.453353e+04 3.544047e+03 7.213656e+03 9.415721e+03 2.108186e+04 1.707476e+04 7.118777e+03 -1.090049e+03 3.729777e+03 1.376928e+04 -2.627472e+04 -3.116307e+04 -3.624662e+04 -4.057030e+04 -4.541002e+04 -4.987597e+04 -5.467598e+04 -5.968085e+04 -6.549701e+04 -7.068568e+04 -7.394259e+04 -7.785320e+04 -7.968158e+04 -8.475722e+04 -8.818351e+04 -9.214084e+04 -9.611191e+04 -9.761124e+04 -1.003762e+05 -1.039960e+05 -1.079064e+05 -1.095982e+05 -1.129335e+05 -1.181946e+05 -1.204009e+05 -1.214428e+05 -1.231746e+05 -1.273298e+05 -1.325508e+05 -1.319259e+05 -1.336569e+05 -1.361696e+05 -1.392339e+05 -1.422305e+05 -1.456238e+05 -1.507665e+05 -1.507704e+05 -1.504547e+05 -1.536762e+05 -1.498476e+05 -1.529199e+05 -1.571975e+05 -1.568931e+05 -1.574378e+05 -1.620320e+05 -1.597214e+05 -1.615650e+05 -1.627985e+05 -1.632772e+05 -1.710854e+05 -1.677396e+05 -1.729154e+05 -1.751580e+05 -1.740188e+05 -1.739539e+05 -1.757263e+05 -1.745768e+05 -1.769556e+05 -1.741654e+05 -1.801493e+05 -1.755706e+05 -1.725738e+05 -1.761826e+05 -1.839098e+05 -1.936682e+05 -1.908597e+05 -1.879486e+05 -1.808316e+05 -1.795150e+05 -1.766769e+05 -1.819186e+05 -1.811707e+05 -1.805677e+05 -1.847680e+05 -1.840100e+05 -1.887735e+05 -1.871311e+05 -2.213709e+05 -2.401801e+05 -2.391659e+05 -2.363722e+05 -2.363722e+05 -2.334973e+05 -2.260602e+05 -2.214402e+05 -2.166395e+05 -2.166395e+05 -2.089799e+05 -2.000143e+05 -1.948421e+05 -1.907276e+05 -1.894358e+05 -1.830790e+05 -1.813451e+05 -1.776561e+05 -1.700896e+05 -1.657825e+05 -1.615196e+05 -1.548674e+05 -1.511400e+05 -1.470886e+05 -1.406341e+05 -1.406341e+05 -1.354184e+05 -1.279512e+05 -1.261271e+05 -1.221984e+05 -1.192260e+05 -1.153637e+05 -1.095336e+05 -1.040204e+05 -1.023696e+05 -9.965487e+04 -9.463113e+04 -9.263329e+04 -8.565446e+04 -8.403354e+04 -8.106708e+04 -7.786374e+04 -7.620728e+04 -6.993200e+04 -6.893136e+04 -6.459149e+04 -6.164356e+04 -5.944811e+04 -5.467954e+04 -5.358627e+04 -4.791829e+04 -4.791829e+04 -4.507986e+04 -4.099419e+04 -3.566396e+04 -3.566396e+04 -3.145406e+04 -2.790074e+04 -2.790074e+04 -2.438424e+04 -2.129148e+04 -1.933602e+04 -1.574409e+04 -1.574409e+04 -1.146186e+04 -1.146186e+04 -9.409794e+03 -9.018445e+03 -3.911509e+04 5.470467e+03 5.321609e+03 6.819832e+03 6.819832e+03 9.367946e+03 1.129992e+04 1.308996e+04 1.612702e+04 1.612702e+04 -6.991192e+03 -6.991192e+03 -6.991192e+03 -5.173484e+03 6.239206e+04 6.239206e+04 6.239206e+04 2.387494e+04 2.387494e+04 2.387494e+04 3.591940e+04 -3.857264e+04 -3.857264e+04 -3.857264e+04 -4.614286e+04 -8.636579e+04 -8.636579e+04 -8.636579e+04 -9.535960e+04 -2.025749e+05 -2.025749e+05 -2.025749e+05 -2.002085e+05 -1.944491e+05 -1.793064e+05 -1.793064e+05 -1.793064e+05 -1.746556e+05 -5.820110e+03 -5.820110e+03 -5.820110e+03 -7.757020e+04 -7.757020e+04 -7.757020e+04 -7.430258e+04 -7.560112e+04 -2.172967e+05 -2.172967e+05 -2.172967e+05 -2.209261e+05 -3.660775e+04 -3.660775e+04 -3.660775e+04 -2.729543e+04 -2.729543e+04 -1.371606e+05 -1.371606e+05 -1.371606e+05 -1.395494e+05 -1.439472e+05 -1.843541e+05 -1.843541e+05 -1.843541e+05 -1.863703e+05 -1.946275e+05 -1.325140e+05 -1.325140e+05 -1.325140e+05 -1.343460e+05 -2.111645e+05 -2.111645e+05 -2.111645e+05 -3.381125e+04 -3.381125e+04 -1.190991e+05 -1.190991e+05 -1.674918e+05 -1.674918e+05 -1.674918e+05 -1.573630e+05 -2.024077e+05 -2.024077e+05 -2.024077e+05 -1.837856e+05 -2.353901e+05 -2.353901e+05 -2.442670e+05 -2.442670e+05 -1.878728e+05 -1.878728e+05 -1.878728e+05 -1.837223e+05 -1.837223e+05 -2.323683e+05 -2.323683e+05 -2.323683e+05 -2.289806e+05 -2.289806e+05 -2.444895e+04 -1.901491e+05 -1.901491e+05 -1.901491e+05 -1.860147e+05 -6.462935e+04 -6.462935e+04 -6.462935e+04 -6.732073e+04 -6.732073e+04 -1.058639e+05 -1.058639e+05 -1.058639e+05 -9.641560e+04 -9.641560e+04 -1.386123e+05 -1.386123e+05 -1.386123e+05 -1.386927e+05 -1.386927e+05 -1.606718e+05 -1.606718e+05 -1.606718e+05 -1.515596e+05 -1.515596e+05 -2.203093e+04 -2.203093e+04 -2.203093e+04 -2.050488e+04 -3.851611e+04 -3.851611e+04 -3.851611e+04 -4.437492e+04 -1.129412e+05 -1.129412e+05 -1.129412e+05 -1.222481e+05 -1.222481e+05 2.802481e+04 2.802481e+04 2.802481e+04 -1.777626e+04 -1.777626e+04 -1.777626e+04 -3.712079e+03 -3.712079e+03 5.015270e+04 5.015270e+04 5.015270e+04 9.797083e+04 9.797083e+04 -4.783145e+04 -4.783145e+04 -4.783145e+04 -3.434894e+04 -1.139629e+05 -1.139629e+05 -1.838731e+05 -1.838731e+05 -1.838731e+05 -6.254017e+04 -6.254017e+04 -5.137896e+04 -5.137896e+04 -4.432249e+04 -4.432249e+04 -4.432249e+04 -4.449929e+04 -2.291710e+05 -2.291710e+05 -2.291710e+05 -2.261279e+05 -4.366430e+04 -4.366430e+04 -2.247915e+05 -2.247915e+05 -2.247915e+05 -1.093924e+05 -1.093924e+05 -1.093924e+05 -1.127444e+05 -1.127444e+05 -2.388559e+05 -2.388559e+05 -2.388559e+05 -2.397140e+05 -2.397140e+05 -2.177970e+05 -2.177970e+05 -2.128112e+05 -2.164444e+05 -2.164444e+05 -2.164444e+05 -9.904168e+04 -9.904168e+04 -1.325508e+05 -1.953695e+05 -1.953695e+05 -1.953695e+05 -1.885096e+05 -1.269911e+05 -1.229173e+05 -1.856735e+05 -1.856735e+05 -1.856735e+05 -2.086999e+05 -2.086999e+05 -2.086999e+05 -2.151244e+05 -2.151244e+05 -2.151244e+05 -2.134936e+05 -2.134936e+05 -2.134936e+05 -