/*--------------------------------*- C++ -*----------------------------------*\
| =========                 |                                                 |
| \\      /  F ield         | OpenFOAM: The Open Source CFD Toolbox           |
|  \\    /   O peration     | Version:  2.3.0                                 |
|   \\  /    A nd           | Web:      www.OpenFOAM.org                      |
|    \\/     M anipulation  |                                                 |
\*---------------------------------------------------------------------------*/
FoamFile
{
    version     2.0;
    format      ascii;
    class       polyBoundaryMesh;
    location    "constant/polyMesh";
    object      boundary;
}
// * * * * * * * * * * * * * * * * * * * * * * * * * * * * * * * * * * * * * //


7
(
left
{
    type wall;
    nFaces 210;
    startFace 36984;
}

bottom
{
    type wall;
    nFaces 109;
    startFace 37194;
}

right
{
    type wall;
    nFaces 154;
    startFace 37303;
}

top0
{
    type wall;
    nFaces 154;
    startFace 37457;
}

top1
{
    type wall;
    nFaces 109;
    startFace 37611;
}

bottomEmptyFaces
{
    type empty;
    nFaces 18676;
    startFace 37720;
}

topEmptyFaces
{
    type empty;
    nFaces 18676;
    startFace 56396;
}

)


// ************************************************************************* //
