<?xml version="1.0"?>
 <VTKFile type="UnstructuredGrid" version="1.0" byte_order="LittleEndian" header_type="UInt64">
  <UnstructuredGrid>
    <FieldData>
     <DataArray type="Float64" Name="TimeValue" NumberOfTuples="1" format="ascii">
0.004
     </DataArray>
    </FieldData>
   <Piece NumberOfPoints="3632" NumberOfCells="3379">
    <PointData>
     <DataArray type="Float64" Name="pointP" format="ascii">
1.249924e+05 1.249924e+05 1.249201e+05 1.247727e+05 1.246617e+05 1.248055e+05 1.245666e+05 1.243099e+05 1.242411e+05 1.246467e+05 1.242725e+05 1.240727e+05 1.240219e+05 1.237694e+05 1.237898e+05 1.233183e+05 1.236235e+05 1.231638e+05 1.231730e+05 1.228024e+05 1.230788e+05 1.227532e+05 1.226294e+05 1.225122e+05 1.223151e+05 1.219301e+05 1.216323e+05 1.223212e+05 1.217118e+05 1.211216e+05 1.211814e+05 1.209701e+05 1.207655e+05 1.202436e+05 1.198928e+05 1.198783e+05 1.197820e+05 1.193963e+05 1.190523e+05 1.188233e+05 1.186640e+05 1.183350e+05 1.181722e+05 1.178268e+05 1.175724e+05 1.173668e+05 1.170627e+05 1.167412e+05 1.163740e+05 1.161117e+05 1.158429e+05 1.155766e+05 1.154133e+05 1.150930e+05 1.146499e+05 1.143944e+05 1.140269e+05 1.137471e+05 1.134420e+05 1.131379e+05 1.128439e+05 1.125792e+05 1.121862e+05 1.119032e+05 1.116051e+05 1.113254e+05 1.109090e+05 1.105965e+05 1.102969e+05 1.100318e+05 1.096631e+05 1.093675e+05 1.090452e+05 1.087410e+05 1.083383e+05 1.080244e+05 1.076900e+05 1.073599e+05 1.070801e+05 1.067936e+05 1.063757e+05 1.060456e+05 1.056945e+05 1.053837e+05 1.050793e+05 1.047506e+05 1.044198e+05 1.041073e+05 1.037175e+05 1.033845e+05 1.030721e+05 1.027431e+05 1.024146e+05 1.021085e+05 1.017733e+05 1.014267e+05 1.011044e+05 1.007799e+05 1.004305e+05 1.000155e+05 9.969824e+04 9.938511e+04 9.908495e+04 9.871349e+04 9.841206e+04 9.812471e+04 9.784176e+04 9.752127e+04 9.721255e+04 9.694641e+04 9.667013e+04 9.637782e+04 9.609065e+04 9.569349e+04 9.537941e+04 9.505393e+04 9.476507e+04 9.448907e+04 9.417539e+04 9.381721e+04 9.353801e+04 9.325900e+04 9.297704e+04 9.273806e+04 9.247706e+04 9.216687e+04 9.190196e+04 9.161274e+04 9.135995e+04 9.115799e+04 9.095122e+04 9.065131e+04 9.039274e+04 9.012876e+04 8.993974e+04 8.965240e+04 8.942567e+04 8.923102e+04 8.898213e+04 8.876688e+04 8.855882e+04 8.828593e+04 8.807362e+04 8.786374e+04 8.765735e+04 8.749046e+04 8.728011e+04 8.711891e+04 8.693056e+04 8.680596e+04 8.665024e+04 8.644325e+04 8.628124e+04 8.613636e+04 8.596617e+04 8.581430e+04 8.568914e+04 8.551433e+04 8.537407e+04 8.521469e+04 8.507900e+04 8.491571e+04 8.479903e+04 8.469742e+04 8.458122e+04 8.448220e+04 8.435295e+04 8.423967e+04 8.410651e+04 8.402445e+04 8.386364e+04 8.374495e+04 8.364126e+04 8.354300e+04 8.350497e+04 8.343139e+04 8.338555e+04 8.333655e+04 8.324587e+04 8.317198e+04 8.318385e+04 1.019931e+05 1.019931e+05 1.019931e+05 1.029356e+05 1.029356e+05 1.029356e+05 1.031539e+05 1.029652e+05 1.042398e+05 1.035650e+05 1.054825e+05 1.054825e+05 1.054825e+05 1.054813e+05 9.894192e+04 9.894192e+04 9.894192e+04 9.892822e+04 9.924640e+04 1.177493e+05 1.177493e+05 1.177493e+05 1.176980e+05 1.175377e+05 1.175377e+05 1.175377e+05 1.171193e+05 1.008570e+05 1.008570e+05 1.008570e+05 1.011939e+05 1.014581e+05 1.014663e+05 9.022534e+04 9.022534e+04 9.022534e+04 8.974954e+04 8.974954e+04 1.170956e+05 1.170956e+05 1.170956e+05 1.167790e+05 8.736054e+04 8.736054e+04 8.736054e+04 8.699550e+04 8.699550e+04 1.236825e+05 1.236825e+05 1.236825e+05 1.082749e+05 1.082749e+05 1.082749e+05 1.084609e+05 1.051645e+05 1.051645e+05 1.051645e+05 1.158089e+05 1.158089e+05 1.158089e+05 1.158593e+05 9.112540e+04 9.112540e+04 9.112658e+04 9.112658e+04 1.094566e+05 1.094566e+05 1.097136e+05 1.163527e+05 1.163527e+05 1.163527e+05 1.166704e+05 1.166704e+05 8.537365e+04 8.537365e+04 8.537365e+04 8.573697e+04 8.573697e+04 1.002424e+05 1.002424e+05 1.002424e+05 9.979681e+04 9.979681e+04 1.182809e+05 1.182809e+05 1.098969e+05 1.098969e+05 1.098969e+05 1.099666e+05 1.052381e+05 1.052381e+05 1.052381e+05 1.051112e+05 1.051298e+05 1.106139e+05 1.106139e+05 1.106139e+05 1.087935e+05 1.087935e+05 1.089208e+05 1.198783e+05 1.198824e+05 1.198824e+05 8.354300e+04 8.376812e+04 8.376812e+04 1.049150e+05 9.247706e+04 9.266526e+04 1.049470e+05 1.028196e+05 1.028196e+05 1.028196e+05 1.031572e+05 1.000261e+05 1.028463e+05 1.028463e+05 1.028463e+05 1.034478e+05 1.034478e+05 9.858683e+04 9.858683e+04 9.858683e+04 9.902006e+04 9.496151e+04 9.496151e+04 9.496151e+04 9.484724e+04 1.171580e+05 1.170222e+05 1.165349e+05 1.182660e+05 1.182660e+05 1.039687e+05 1.039687e+05 1.039687e+05 1.042806e+05 1.119079e+05 1.119079e+05 1.119079e+05 1.123050e+05 1.123050e+05 1.119500e+05 9.292792e+04 9.292792e+04 9.292792e+04 9.269703e+04 9.506378e+04 9.506378e+04 9.506378e+04 9.545807e+04 9.567103e+04 1.092471e+05 1.092471e+05 1.092471e+05 1.092921e+05 8.634319e+04 8.536613e+04 9.841251e+04 9.841251e+04 9.841251e+04 9.877979e+04 9.064654e+04 9.064654e+04 9.064654e+04 9.082748e+04 1.144451e+05 1.144451e+05 1.144451e+05 1.149697e+05 1.149697e+05 8.861765e+04 8.861765e+04 8.861765e+04 8.882592e+04 1.143235e+05 1.143235e+05 1.143235e+05 1.141659e+05 1.171994e+05 1.171994e+05 1.171994e+05 1.171594e+05 9.300469e+04 9.300469e+04 9.300039e+04 1.054907e+05 1.054907e+05 1.063306e+05 1.063306e+05 1.063306e+05 1.036611e+05 1.036611e+05 1.036611e+05 1.035263e+05 8.366460e+04 8.366460e+04 8.366460e+04 8.359998e+04 8.359998e+04 1.220261e+05 1.220261e+05 1.220261e+05 1.218038e+05 1.218038e+05 1.056820e+05 1.137871e+05 1.137871e+05 1.140318e+05 8.338079e+04 8.338079e+04 8.338079e+04 8.336662e+04 8.607922e+04 8.607922e+04 8.625507e+04 8.625507e+04 1.188021e+05 1.188021e+05 1.190165e+05 1.163612e+05 1.163612e+05 8.532240e+04 8.532240e+04 8.550164e+04 8.550164e+04 1.152298e+05 1.152298e+05 1.152298e+05 1.150739e+05 1.049844e+05 1.047655e+05 1.092718e+05 1.092718e+05 1.092718e+05 1.090793e+05 1.113314e+05 1.113314e+05 1.113314e+05 1.109726e+05 1.109726e+05 8.450657e+04 8.450657e+04 8.450657e+04 8.447263e+04 8.447263e+04 1.100580e+05 1.103947e+05 1.233887e+05 1.233887e+05 1.233887e+05 1.233345e+05 8.656844e+04 8.656844e+04 8.656844e+04 8.624249e+04 8.624249e+04 8.658237e+04 8.672498e+04 1.058860e+05 1.058860e+05 1.058860e+05 1.055376e+05 1.055376e+05 1.017623e+05 1.019162e+05 1.019162e+05 9.129605e+04 9.129605e+04 9.129605e+04 9.142909e+04 9.142909e+04 9.298680e+04 9.298680e+04 9.298680e+04 9.266962e+04 9.266962e+04 8.792944e+04 8.792944e+04 8.833867e+04 8.833867e+04 1.054704e+05 1.054704e+05 1.051353e+05 8.884471e+04 8.884471e+04 8.870756e+04 8.870756e+04 9.253527e+04 9.253527e+04 9.253527e+04 9.320951e+04 9.911057e+04 9.911057e+04 9.911057e+04 9.838548e+04 9.838548e+04 1.156432e+05 1.169059e+05 1.137842e+05 1.031040e+05 1.031040e+05 1.031040e+05 1.036319e+05 1.036319e+05 1.049273e+05 1.049273e+05 1.051980e+05 1.021126e+05 1.021126e+05 1.020571e+05 1.015827e+05 1.057822e+05 1.057822e+05 1.057822e+05 1.052730e+05 1.052730e+05 1.052730e+05 1.074065e+05 1.074065e+05 1.074065e+05 9.887686e+04 9.925877e+04 1.038744e+05 1.075516e+05 1.075516e+05 1.075516e+05 1.070504e+05 1.092854e+05 1.092854e+05 1.092854e+05 1.093821e+05 1.093821e+05 1.093821e+05 1.090870e+05 9.425680e+04 9.425680e+04 9.425680e+04 9.941861e+04 9.941861e+04 9.941861e+04 1.067497e+05 1.067497e+05 1.067497e+05 1.145973e+05 1.145973e+05 1.146457e+05 9.160522e+04 9.452597e+04 9.452597e+04 1.180030e+05 1.180030e+05 1.180030e+05 1.187041e+05 1.187041e+05 1.038960e+05 1.038960e+05 8.451712e+04 8.490214e+04 8.536613e+04 1.204060e+05 1.204060e+05 1.204060e+05 1.201238e+05 9.586820e+04 9.586820e+04 9.586820e+04 1.048845e+05 1.048395e+05 1.046080e+05 9.917372e+04 9.917372e+04 9.917372e+04 9.090853e+04 9.090853e+04 9.090853e+04 9.080535e+04 9.059780e+04 1.058393e+05 1.058393e+05 1.058393e+05 1.224469e+05 1.224469e+05 1.224469e+05 1.224260e+05 1.116322e+05 1.116322e+05 1.116322e+05 1.115194e+05 1.225939e+05 1.225939e+05 1.225939e+05 1.092526e+05 1.012188e+05 1.012188e+05 1.023235e+05 1.023235e+05 1.023235e+05 1.022188e+05 1.022877e+05 8.390727e+04 8.390727e+04 8.406837e+04 8.351982e+04 8.351282e+04 1.157303e+05 1.157303e+05 9.257006e+04 9.257006e+04 9.257006e+04 9.271911e+04 8.471793e+04 8.471793e+04 8.471793e+04 8.485832e+04 1.119032e+05 1.118931e+05 1.118931e+05 9.810367e+04 9.810367e+04 9.810367e+04 9.802505e+04 8.594952e+04 9.984393e+04 9.984393e+04 9.988275e+04 1.171569e+05 1.171569e+05 1.171569e+05 1.221617e+05 1.221617e+05 1.212830e+05 1.212830e+05 1.212830e+05 1.217280e+05 1.229681e+05 1.229681e+05 1.229681e+05 1.228299e+05 1.228299e+05 1.228856e+05 1.199136e+05 1.199136e+05 1.019671e+05 9.009389e+04 9.009389e+04 9.029570e+04 9.829315e+04 1.243867e+05 1.240920e+05 1.243867e+05 1.243867e+05 1.131940e+05 1.131940e+05 1.131940e+05 1.128540e+05 1.128540e+05 1.175896e+05 1.175896e+05 1.178025e+05 1.178025e+05 1.152797e+05 1.152797e+05 1.152797e+05 1.158103e+05 1.158103e+05 1.038232e+05 1.038232e+05 1.038232e+05 1.041152e+05 1.041152e+05 1.208601e+05 1.208601e+05 1.208601e+05 1.200890e+05 1.200890e+05 1.100685e+05 1.100685e+05 1.100685e+05 1.047233e+05 8.639038e+04 8.639038e+04 8.639038e+04 8.709428e+04 8.709428e+04 9.042935e+04 9.042935e+04 9.042935e+04 9.132895e+04 9.132895e+04 9.544032e+04 9.544032e+04 9.544032e+04 9.628640e+04 9.628640e+04 1.180811e+05 1.180811e+05 1.180811e+05 1.053923e+05 1.053923e+05 1.053923e+05 1.058311e+05 1.058311e+05 9.810228e+04 9.920859e+04 9.552004e+04 9.552004e+04 9.552004e+04 9.503865e+04 1.046818e+05 1.046818e+05 1.045358e+05 1.016447e+05 1.016447e+05 1.016849e+05 1.016849e+05 1.020984e+05 1.024237e+05 1.076832e+05 1.064066e+05 1.076832e+05 1.076832e+05 1.042398e+05 1.042398e+05 1.027076e+05 1.093801e+05 1.098140e+05 1.198397e+05 1.198397e+05 1.198397e+05 1.195428e+05 1.197106e+05 9.778000e+04 9.778000e+04 9.778000e+04 9.743523e+04 9.061587e+04 9.199170e+04 8.383889e+04 8.383889e+04 8.383889e+04 8.397269e+04 1.142192e+05 1.143392e+05 1.142720e+05 1.022687e+05 1.022687e+05 1.021462e+05 8.485994e+04 8.564135e+04 8.564135e+04 8.573828e+04 8.592230e+04 9.054831e+04 9.066613e+04 9.065101e+04 9.717602e+04 9.717602e+04 9.717602e+04 9.711118e+04 8.715623e+04 8.715623e+04 8.715623e+04 8.693974e+04 1.025393e+05 8.728011e+04 8.752379e+04 8.752379e+04 1.100330e+05 1.100330e+05 1.100330e+05 9.686692e+04 1.208057e+05 1.208057e+05 9.876449e+04 9.876449e+04 9.876449e+04 1.122188e+05 8.510544e+04 8.510544e+04 9.778174e+04 9.634138e+04 9.634138e+04 9.634138e+04 9.621478e+04 9.131702e+04 8.385294e+04 8.385294e+04 8.397301e+04 8.568914e+04 1.031937e+05 1.031937e+05 8.843496e+04 8.843496e+04 8.843496e+04 8.820625e+04 1.191612e+05 1.193024e+05 1.193024e+05 1.109688e+05 8.690441e+04 8.690441e+04 8.684070e+04 1.204628e+05 1.204628e+05 1.193436e+05 1.145284e+05 9.381721e+04 9.391515e+04 9.391515e+04 1.240847e+05 1.240847e+05 9.316687e+04 1.216282e+05 1.216282e+05 9.496816e+04 9.496816e+04 9.496816e+04 9.467560e+04 9.011797e+04 9.011797e+04 9.205515e+04 9.205515e+04 8.469616e+04 8.390696e+04 1.082636e+05 1.081323e+05 8.765735e+04 8.788968e+04 8.788968e+04 1.041073e+05 1.042492e+05 1.042492e+05 8.423292e+04 8.423292e+04 8.429703e+04 8.429703e+04 1.174260e+05 1.045682e+05 1.240445e+05 1.240445e+05 1.240722e+05 1.243881e+05 1.243881e+05 1.186640e+05 1.184333e+05 1.125271e+05 1.125271e+05 1.125271e+05 1.224322e+05 1.224322e+05 1.224322e+05 1.224363e+05 9.440769e+04 9.440769e+04 1.132060e+05 8.457636e+04 8.457636e+04 9.655177e+04 9.138698e+04 9.926959e+04 9.926959e+04 9.926959e+04 8.641195e+04 8.641195e+04 1.181722e+05 1.179409e+05 1.179409e+05 1.070801e+05 1.071860e+05 1.060456e+05 1.061880e+05 8.379389e+04 1.234114e+05 1.234114e+05 8.945856e+04 8.945856e+04 8.945856e+04 8.938133e+04 1.226511e+05 9.151370e+04 9.582790e+04 9.582790e+04 9.555086e+04 9.368578e+04 9.368578e+04 8.509952e+04 8.509952e+04 8.490973e+04 1.113254e+05 1.113200e+05 1.113200e+05 1.000527e+05 1.237721e+05 1.237721e+05 1.234583e+05 1.234583e+05 1.010589e+05 1.010589e+05 1.010589e+05 8.881599e+04 8.881599e+04 8.881599e+04 1.016309e+05 1.016309e+05 1.196948e+05 1.234951e+05 1.232577e+05 1.229248e+05 1.186810e+05 1.236998e+05 8.620415e+04 1.074808e+05 1.077946e+05 8.917163e+04 8.917163e+04 1.152489e+05 1.135192e+05 8.981963e+04 8.965646e+04 1.006273e+05 1.006273e+05 1.249924e+05 1.246203e+05 1.242453e+05 1.242453e+05 1.242453e+05 1.244342e+05 1.204941e+05 1.199572e+05 1.208736e+05 1.211312e+05 1.069272e+05 1.069272e+05 1.067767e+05 1.187590e+05 8.706855e+04 8.830385e+04 1.149248e+05 1.136397e+05 1.136397e+05 1.136397e+05 9.941669e+04 9.539088e+04 9.539088e+04 9.539088e+04 1.245668e+05 1.206978e+05 1.232774e+05 1.229185e+05 9.329060e+04 1.114084e+05 1.235225e+05 1.238843e+05 8.478664e+04 8.502307e+04 8.502307e+04 1.095761e+05 1.125930e+05 8.638310e+04 8.545714e+04 1.197301e+05 1.192264e+05 1.192264e+05 8.773063e+04 8.773063e+04 8.784462e+04 8.784462e+04 9.458917e+04 1.154726e+05 1.039826e+05 8.345211e+04 1.216650e+05 1.212920e+05 9.906654e+04 1.036004e+05 1.034856e+05 1.034856e+05 1.208315e+05 1.208315e+05 1.206193e+05 1.206193e+05 9.851449e+04 9.881249e+04 9.248769e+04 9.248769e+04 9.241849e+04 9.676846e+04 9.676846e+04 9.642468e+04 9.642468e+04 9.366440e+04 9.366440e+04 8.388483e+04 1.228754e+05 1.228754e+05 1.189244e+05 1.189244e+05 1.189244e+05 1.166969e+05 8.680214e+04 8.680214e+04 8.960559e+04 8.960559e+04 8.564403e+04 8.573554e+04 1.180829e+05 1.223227e+05 8.343803e+04 8.467206e+04 8.467206e+04 1.007077e+05 1.007077e+05 1.011345e+05 8.518356e+04 8.518356e+04 9.171499e+04 9.171499e+04 1.215281e+05 1.215281e+05 1.075813e+05 1.238808e+05 1.123999e+05 1.123999e+05 1.121827e+05 1.040414e+05 1.042909e+05 8.605747e+04 8.801936e+04 9.402149e+04 1.232375e+05 8.383439e+04 9.604164e+04 9.604164e+04 9.604164e+04 1.027649e+05 1.027649e+05 1.027649e+05 1.059695e+05 9.778545e+04 9.778545e+04 9.778545e+04 9.738256e+04 1.240224e+05 1.237487e+05 1.150890e+05 1.148479e+05 1.148479e+05 1.015630e+05 1.015630e+05 1.015630e+05 1.163776e+05 8.730681e+04 1.227671e+05 1.242919e+05 1.242919e+05 1.240462e+05 1.028253e+05 9.099497e+04 9.099497e+04 9.111484e+04 9.406426e+04 9.406426e+04 1.233901e+05 8.398220e+04 9.432378e+04 9.465624e+04 9.020301e+04 1.068170e+05 1.071497e+05 1.222342e+05 9.942547e+04 9.942547e+04 9.942547e+04 9.191549e+04 9.191549e+04 1.177191e+05 1.175301e+05 1.175301e+05 1.213481e+05 1.210339e+05 8.865551e+04 8.856516e+04 1.216202e+05 1.216202e+05 1.216202e+05 1.214597e+05 8.894316e+04 8.894316e+04 8.909285e+04 8.483837e+04 8.483837e+04 1.082494e+05 1.082494e+05 1.082494e+05 1.081155e+05 9.422613e+04 1.219711e+05 1.219711e+05 1.219711e+05 1.219338e+05 1.225259e+05 8.996976e+04 8.996976e+04 8.995324e+04 8.995324e+04 8.827168e+04 1.182013e+05 1.182013e+05 1.010383e+05 1.006994e+05 1.165249e+05 1.165249e+05 8.939270e+04 8.965125e+04 1.205894e+05 1.240920e+05 1.238998e+05 9.346284e+04 9.352480e+04 1.230932e+05 9.781874e+04 9.781874e+04 9.773796e+04 9.773796e+04 9.331270e+04 9.961150e+04 1.000031e+05 1.142047e+05 9.505961e+04 8.925010e+04 8.964139e+04 1.184026e+05 1.184026e+05 1.237253e+05 1.237253e+05 1.237253e+05 1.235019e+05 8.529203e+04 8.529203e+04 8.504288e+04 1.077947e+05 1.077385e+05 1.131938e+05 8.411055e+04 8.429656e+04 8.429656e+04 8.429656e+04 8.430492e+04 9.677164e+04 1.249201e+05 1.210992e+05 1.204901e+05 1.204901e+05 8.685550e+04 8.685550e+04 8.685550e+04 8.662470e+04 1.231727e+05 1.231727e+05 1.200249e+05 1.200249e+05 1.197788e+05 1.151697e+05 1.115656e+05 1.226477e+05 9.531194e+04 9.499867e+04 1.234563e+05 1.234845e+05 1.043868e+05 1.124570e+05 1.124570e+05 1.124570e+05 1.128857e+05 8.707658e+04 9.827174e+04 9.822435e+04 8.531948e+04 8.558612e+04 1.022012e+05 1.024022e+05 9.154283e+04 9.154283e+04 1.137345e+05 9.307903e+04 9.307903e+04 9.349108e+04 9.227620e+04 9.227620e+04 9.700673e+04 8.776903e+04 8.776903e+04 8.736924e+04 1.200201e+05 1.223534e+05 1.223534e+05 9.601039e+04 9.607491e+04 9.607491e+04 1.092552e+05 8.627952e+04 8.461466e+04 8.470554e+04 1.188988e+05 1.188988e+05 1.034492e+05 9.414955e+04 1.089228e+05 1.088524e+05 1.077714e+05 1.191358e+05 1.191358e+05 1.132886e+05 1.132886e+05 1.132886e+05 1.073682e+05 1.074347e+05 1.162446e+05 1.163472e+05 1.163472e+05 1.036214e+05 1.032771e+05 1.032771e+05 1.103269e+05 1.064601e+05 1.068990e+05 1.212227e+05 1.217767e+05 1.217767e+05 1.217767e+05 1.219466e+05 8.599066e+04 8.995493e+04 9.661959e+04 9.690403e+04 9.150469e+04 9.150469e+04 9.150469e+04 9.972650e+04 9.972650e+04 9.972650e+04 9.987156e+04 1.003312e+05 8.619088e+04 8.834089e+04 8.817354e+04 9.863418e+04 9.863418e+04 8.772806e+04 8.811382e+04 8.809731e+04 8.809731e+04 9.772887e+04 9.300487e+04 9.300487e+04 9.282448e+04 1.147298e+05 1.147298e+05 1.143359e+05 9.534854e+04 9.534854e+04 1.050714e+05 8.974701e+04 8.974701e+04 8.940253e+04 8.940253e+04 8.561122e+04 8.561122e+04 8.561122e+04 1.207953e+05 1.204207e+05 1.204207e+05 8.496525e+04 8.496525e+04 8.496525e+04 8.451511e+04 8.547162e+04 9.919624e+04 1.210774e+05 1.210774e+05 1.205944e+05 1.197659e+05 1.197659e+05 1.197659e+05 1.114797e+05 1.114797e+05 1.112143e+05 1.098798e+05 1.098798e+05 1.102640e+05 8.599239e+04 8.678807e+04 8.678807e+04 1.231242e+05 1.226143e+05 9.459874e+04 9.459874e+04 9.459874e+04 1.230627e+05 8.870060e+04 8.870060e+04 8.887652e+04 8.887652e+04 8.583273e+04 8.583273e+04 8.604148e+04 8.604148e+04 8.503497e+04 8.503497e+04 8.489614e+04 1.083243e+05 1.082737e+05 9.490201e+04 1.181313e+05 1.181313e+05 1.181313e+05 9.971886e+04 1.128840e+05 8.727492e+04 1.111416e+05 1.226644e+05 9.195309e+04 1.140125e+05 1.140125e+05 1.229922e+05 1.225883e+05 1.225883e+05 1.093046e+05 1.094236e+05 1.220486e+05 1.220486e+05 1.214036e+05 8.802258e+04 8.802258e+04 1.007249e+05 1.032986e+05 1.187996e+05 1.061326e+05 1.226610e+05 1.220575e+05 1.220575e+05 9.415634e+04 9.852140e+04 9.730682e+04 1.214211e+05 1.215860e+05 8.629810e+04 8.629810e+04 9.215611e+04 9.215611e+04 1.039591e+05 8.560721e+04 8.555317e+04 8.555317e+04 1.200319e+05 9.361498e+04 9.421675e+04 9.724472e+04 9.724472e+04 9.724472e+04 9.674441e+04 9.674441e+04 1.125702e+05 1.188245e+05 1.210253e+05 1.158566e+05 1.158566e+05 1.073262e+05 1.073262e+05 1.074445e+05 1.067713e+05 1.067713e+05 1.221084e+05 1.221084e+05 1.221084e+05 1.214049e+05 1.214049e+05 1.101966e+05 1.101966e+05 1.106497e+05 1.128033e+05 1.119512e+05 1.119512e+05 1.119512e+05 9.022077e+04 1.135342e+05 1.132003e+05 1.132003e+05 9.051101e+04 9.071490e+04 8.490214e+04 8.621107e+04 1.204363e+05 1.095084e+05 1.089855e+05 1.226143e+05 1.165119e+05 1.165119e+05 1.158860e+05 1.158860e+05 1.171192e+05 1.172405e+05 1.206169e+05 8.704919e+04 8.968916e+04 8.968916e+04 8.971595e+04 8.563321e+04 1.180587e+05 8.507416e+04 1.002286e+05 9.110600e+04 1.212143e+05 1.196688e+05 1.196688e+05 1.194811e+05 1.194811e+05 9.652232e+04 1.027130e+05 1.027130e+05 1.027130e+05 9.478262e+04 1.177598e+05 1.049383e+05 8.804400e+04 8.797785e+04 9.337965e+04 8.581229e+04 8.923359e+04 8.839181e+04 8.725105e+04 8.725105e+04 8.725105e+04 1.137466e+05 9.544449e+04 8.609298e+04 1.161732e+05 1.161732e+05 1.157409e+05 1.071972e+05 1.002922e+05 1.002922e+05 1.192940e+05 1.109986e+05 1.113276e+05 8.657551e+04 1.068000e+05 1.068000e+05 1.075684e+05 8.565219e+04 8.719855e+04 8.719855e+04 8.687640e+04 1.029684e+05 1.029684e+05 1.029684e+05 1.083266e+05 9.782499e+04 1.054599e+05 9.687197e+04 9.630627e+04 9.630627e+04 9.487982e+04 9.150101e+04 1.137715e+05 1.137715e+05 1.172003e+05 9.379879e+04 9.379879e+04 9.379879e+04 9.354315e+04 1.209748e+05 1.094266e+05 1.199487e+05 1.190828e+05 1.017881e+05 1.126376e+05 1.128979e+05 1.197532e+05 1.088169e+05 1.088080e+05 8.634319e+04 1.085803e+05 1.164655e+05 1.164655e+05 1.164655e+05 1.219755e+05 1.216753e+05 1.160302e+05 1.190390e+05 1.219755e+05 8.803763e+04 8.716777e+04 9.217707e+04 1.111202e+05 1.101643e+05 1.061820e+05 8.891738e+04 8.891738e+04 8.891738e+04 9.435908e+04 1.189199e+05 1.189199e+05 1.206390e+05 1.206390e+05 1.077249e+05 8.775413e+04 1.184954e+05 1.009519e+05 1.009519e+05 1.009519e+05 9.850486e+04 1.178988e+05 1.178988e+05 1.006197e+05 1.055634e+05 1.114720e+05 8.915672e+04 1.165179e+05 1.165179e+05 1.165179e+05 8.831865e+04 8.831865e+04 8.831865e+04 1.218184e+05 1.053237e+05 1.194542e+05 1.194542e+05 8.743264e+04 8.743264e+04 8.743264e+04 8.781704e+04 9.775016e+04 9.775016e+04 9.775016e+04 1.143408e+05 1.143408e+05 1.143408e+05 1.158672e+05 1.019510e+05 1.018127e+05 1.028595e+05 1.028595e+05 1.028595e+05 9.917921e+04 9.938666e+04 9.938666e+04 1.138030e+05 1.127153e+05 1.210057e+05 1.016243e+05 1.013333e+05 8.987023e+04 9.136119e+04 1.088422e+05 9.354806e+04 8.948211e+04 8.948211e+04 8.899989e+04 1.174374e+05 1.076406e+05 9.465450e+04 9.433055e+04 1.002951e+05 1.087548e+05 9.710462e+04 9.710462e+04 1.129220e+05 1.139862e+05 1.135486e+05 9.290775e+04 1.052332e+05 1.180875e+05 9.020132e+04 9.020132e+04 8.847792e+04 8.847792e+04 1.149504e+05 1.149504e+05 1.149504e+05 1.139947e+05 1.139947e+05 1.085780e+05 1.158521e+05 1.156142e+05 1.156142e+05 9.341843e+04 1.066930e+05 1.074679e+05 1.102870e+05 1.102870e+05 1.113016e+05 1.142541e+05 9.034781e+04 9.034781e+04 1.132566e+05 1.128520e+05 8.987023e+04 8.987023e+04 9.469088e+04 9.645437e+04 9.645437e+04 9.645437e+04 1.040086e+05 9.259627e+04 9.279090e+04 1.007596e+05 1.007596e+05 1.007596e+05 1.024472e+05 1.030908e+05 1.076403e+05 1.019990e+05 9.426394e+04 1.103044e+05 1.103044e+05 1.103044e+05 1.096874e+05 9.601663e+04 1.136732e+05 1.136732e+05 1.136732e+05 1.117298e+05 9.112842e+04 1.125061e+05 1.125061e+05 1.042573e+05 9.097713e+04 9.097713e+04 9.097713e+04 9.081970e+04 9.081970e+04 1.167906e+05 1.156522e+05 1.156522e+05 9.170069e+04 9.554511e+04 9.554511e+04 1.093364e+05 9.202104e+04 9.202104e+04 9.202104e+04 9.307465e+04 9.307465e+04 9.307465e+04 1.026677e+05 1.026677e+05 1.031737e+05 9.862284e+04 9.170220e+04 9.170220e+04 1.023220e+05 1.058065e+05 1.058065e+05 1.049400e+05 1.049400e+05 1.121440e+05 9.727041e+04 9.749405e+04 9.749405e+04 9.685231e+04 9.685231e+04 1.005494e+05 1.005494e+05 1.015719e+05 1.082298e+05 1.082298e+05 1.074687e+05 1.074687e+05 9.892292e+04 1.085481e+05 1.141380e+05 1.137730e+05 1.137730e+05 1.077261e+05 1.044961e+05 1.001423e+05 1.128208e+05 1.128208e+05 1.084826e+05 1.137842e+05 1.137842e+05 9.215691e+04 9.215691e+04 1.095757e+05 1.117372e+05 1.117372e+05 1.117372e+05 1.107023e+05 1.107023e+05 1.124375e+05 1.059590e+05 1.059590e+05 1.109160e+05 1.109160e+05 1.101230e+05 1.001173e+05 1.040444e+05 9.510881e+04 9.467557e+04 1.122682e+05 1.122682e+05 9.588432e+04 9.588432e+04 1.025015e+05 1.025015e+05 9.292469e+04 1.048718e+05 1.048718e+05 1.040360e+05 9.876145e+04 9.876145e+04 1.092203e+05 1.092203e+05 1.083906e+05 1.061812e+05 1.061812e+05 1.005178e+05 1.005178e+05 1.033432e+05 1.033432e+05 1.018403e+05 1.019532e+05 1.019532e+05 9.703951e+04 9.690950e+04 9.988742e+04 1.057585e+05 1.058295e+05 1.112363e+05 1.109711e+05 1.091783e+05 1.091783e+05 1.111274e+05 9.825260e+04 9.825260e+04 9.727656e+04 1.071156e+05 1.109607e+05 1.118865e+05 1.118865e+05 1.016703e+05 1.016703e+05 1.094657e+05 1.107938e+05 1.000193e+05 1.000193e+05 1.086331e+05 1.086331e+05 9.626508e+04 9.787212e+04 9.787212e+04 9.787212e+04 9.704790e+04 9.704790e+04 1.084032e+05 1.076374e+05 1.062513e+05 1.062513e+05 1.073096e+05 1.073096e+05 1.083594e+05 9.941196e+04 1.102273e+05 1.089004e+05 1.043660e+05 1.030790e+05 1.057101e+05 1.042112e+05 1.071251e+05 1.008186e+05 1.036152e+05 1.051729e+05 1.043498e+05 1.047050e+05 1.067655e+05 1.064066e+05 1.019037e+05 1.019037e+05 1.043277e+05 1.039494e+05 1.056384e+05 1.013067e+05 1.016230e+05 1.047152e+05 1.047152e+05 1.046419e+05 1.046419e+05 1.025721e+05 1.025721e+05 1.041227e+05 1.034602e+05 1.034602e+05 1.034602e+05 1.034787e+05 1.034787e+05 9.958838e+04 9.958838e+04 9.958838e+04 9.730621e+04 9.730621e+04 9.387737e+04 9.435096e+04 1.008411e+05 9.387737e+04 9.387737e+04 9.339751e+04 9.620142e+04 9.763671e+04 9.835905e+04 9.864070e+04 9.871139e+04 9.982421e+04 9.991587e+04 1.006418e+05 1.006418e+05 1.023812e+05 9.300238e+04 1.008411e+05 1.108277e+05 1.077344e+05 1.041329e+05 1.108174e+05 1.108174e+05 1.093200e+05 1.091795e+05 1.093200e+05 1.025272e+05 1.084967e+05 1.032315e+05 1.011696e+05 1.013036e+05 1.013036e+05 1.036137e+05 1.249924e+05 1.249924e+05 1.249201e+05 1.247727e+05 1.246617e+05 1.248055e+05 1.245666e+05 1.243099e+05 1.242411e+05 1.246467e+05 1.242725e+05 1.240727e+05 1.240219e+05 1.237694e+05 1.237898e+05 1.233183e+05 1.236235e+05 1.231638e+05 1.231730e+05 1.228024e+05 1.230788e+05 1.227532e+05 1.226294e+05 1.225122e+05 1.223151e+05 1.219301e+05 1.216323e+05 1.223212e+05 1.217118e+05 1.211216e+05 1.211814e+05 1.209701e+05 1.207655e+05 1.202436e+05 1.198928e+05 1.198783e+05 1.197820e+05 1.193963e+05 1.190523e+05 1.188233e+05 1.186640e+05 1.183350e+05 1.181722e+05 1.178268e+05 1.175724e+05 1.173668e+05 1.170627e+05 1.167412e+05 1.163740e+05 1.161117e+05 1.158429e+05 1.155766e+05 1.154133e+05 1.150930e+05 1.146499e+05 1.143944e+05 1.140269e+05 1.137471e+05 1.134420e+05 1.131379e+05 1.128439e+05 1.125792e+05 1.121862e+05 1.119032e+05 1.116051e+05 1.113254e+05 1.109090e+05 1.105965e+05 1.102969e+05 1.100318e+05 1.096631e+05 1.093675e+05 1.090452e+05 1.087410e+05 1.083383e+05 1.080244e+05 1.076900e+05 1.073599e+05 1.070801e+05 1.067936e+05 1.063757e+05 1.060456e+05 1.056945e+05 1.053837e+05 1.050793e+05 1.047506e+05 1.044198e+05 1.041073e+05 1.037175e+05 1.033845e+05 1.030721e+05 1.027431e+05 1.024146e+05 1.021085e+05 1.017733e+05 1.014267e+05 1.011044e+05 1.007799e+05 1.004305e+05 1.000155e+05 9.969824e+04 9.938511e+04 9.908495e+04 9.871349e+04 9.841206e+04 9.812471e+04 9.784176e+04 9.752127e+04 9.721255e+04 9.694641e+04 9.667013e+04 9.637782e+04 9.609065e+04 9.569349e+04 9.537941e+04 9.505393e+04 9.476507e+04 9.448907e+04 9.417539e+04 9.381721e+04 9.353801e+04 9.325900e+04 9.297704e+04 9.273806e+04 9.247706e+04 9.216687e+04 9.190196e+04 9.161274e+04 9.135995e+04 9.115799e+04 9.095122e+04 9.065131e+04 9.039274e+04 9.012876e+04 8.993974e+04 8.965240e+04 8.942567e+04 8.923102e+04 8.898213e+04 8.876688e+04 8.855882e+04 8.828593e+04 8.807362e+04 8.786374e+04 8.765735e+04 8.749046e+04 8.728011e+04 8.711891e+04 8.693056e+04 8.680596e+04 8.665024e+04 8.644325e+04 8.628124e+04 8.613636e+04 8.596617e+04 8.581430e+04 8.568914e+04 8.551433e+04 8.537407e+04 8.521469e+04 8.507900e+04 8.491571e+04 8.479903e+04 8.469742e+04 8.458122e+04 8.448220e+04 8.435295e+04 8.423967e+04 8.410651e+04 8.402445e+04 8.386364e+04 8.374495e+04 8.364126e+04 8.354300e+04 8.350497e+04 8.343139e+04 8.338555e+04 8.333655e+04 8.324587e+04 8.317198e+04 8.318385e+04 1.019931e+05 1.019931e+05 1.019931e+05 1.029356e+05 1.029356e+05 1.029356e+05 1.031539e+05 1.029652e+05 1.042398e+05 1.035650e+05 1.054825e+05 1.054825e+05 1.054825e+05 1.054813e+05 9.894192e+04 9.894192e+04 9.894192e+04 9.892822e+04 9.924640e+04 1.177493e+05 1.177493e+05 1.177493e+05 1.176980e+05 1.175377e+05 1.175377e+05 1.175377e+05 1.171193e+05 1.008570e+05 1.008570e+05 1.008570e+05 1.011939e+05 1.014581e+05 1.014663e+05 9.022534e+04 9.022534e+04 9.022534e+04 8.974954e+04 8.974954e+04 1.170956e+05 1.170956e+05 1.170956e+05 1.167790e+05 8.736054e+04 8.736054e+04 8.736054e+04 8.699550e+04 8.699550e+04 1.236825e+05 1.236825e+05 1.236825e+05 1.082749e+05 1.082749e+05 1.082749e+05 1.084609e+05 1.051645e+05 1.051645e+05 1.051645e+05 1.158089e+05 1.158089e+05 1.158089e+05 1.158593e+05 9.112540e+04 9.112540e+04 9.112658e+04 9.112658e+04 1.094566e+05 1.094566e+05 1.097136e+05 1.163527e+05 1.163527e+05 1.163527e+05 1.166704e+05 1.166704e+05 8.537365e+04 8.537365e+04 8.537365e+04 8.573697e+04 8.573697e+04 1.002424e+05 1.002424e+05 1.002424e+05 9.979681e+04 9.979681e+04 1.182809e+05 1.182809e+05 1.098969e+05 1.098969e+05 1.098969e+05 1.099666e+05 1.052381e+05 1.052381e+05 1.052381e+05 1.051112e+05 1.051298e+05 1.106139e+05 1.106139e+05 1.106139e+05 1.087935e+05 1.087935e+05 1.089208e+05 1.198783e+05 1.198824e+05 1.198824e+05 8.354300e+04 8.376812e+04 8.376812e+04 1.049150e+05 9.247706e+04 9.266526e+04 1.049470e+05 1.028196e+05 1.028196e+05 1.028196e+05 1.031572e+05 1.000261e+05 1.028463e+05 1.028463e+05 1.028463e+05 1.034478e+05 1.034478e+05 9.858683e+04 9.858683e+04 9.858683e+04 9.902006e+04 9.496151e+04 9.496151e+04 9.496151e+04 9.484724e+04 1.171580e+05 1.170222e+05 1.165349e+05 1.182660e+05 1.182660e+05 1.039687e+05 1.039687e+05 1.039687e+05 1.042806e+05 1.119079e+05 1.119079e+05 1.119079e+05 1.123050e+05 1.123050e+05 1.119500e+05 9.292792e+04 9.292792e+04 9.292792e+04 9.269703e+04 9.506378e+04 9.506378e+04 9.506378e+04 9.545807e+04 9.567103e+04 1.092471e+05 1.092471e+05 1.092471e+05 1.092921e+05 8.634319e+04 8.536613e+04 9.841251e+04 9.841251e+04 9.841251e+04 9.877979e+04 9.064654e+04 9.064654e+04 9.064654e+04 9.082748e+04 1.144451e+05 1.144451e+05 1.144451e+05 1.149697e+05 1.149697e+05 8.861765e+04 8.861765e+04 8.861765e+04 8.882592e+04 1.143235e+05 1.143235e+05 1.143235e+05 1.141659e+05 1.171994e+05 1.171994e+05 1.171994e+05 1.171594e+05 9.300469e+04 9.300469e+04 9.300039e+04 1.054907e+05 1.054907e+05 1.063306e+05 1.063306e+05 1.063306e+05 1.036611e+05 1.036611e+05 1.036611e+05 1.035263e+05 8.366460e+04 8.366460e+04 8.366460e+04 8.359998e+04 8.359998e+04 1.220261e+05 1.220261e+05 1.220261e+05 1.218038e+05 1.218038e+05 1.056820e+05 1.137871e+05 1.137871e+05 1.140318e+05 8.338079e+04 8.338079e+04 8.338079e+04 8.336662e+04 8.607922e+04 8.607922e+04 8.625507e+04 8.625507e+04 1.188021e+05 1.188021e+05 1.190165e+05 1.163612e+05 1.163612e+05 8.532240e+04 8.532240e+04 8.550164e+04 8.550164e+04 1.152298e+05 1.152298e+05 1.152298e+05 1.150739e+05 1.049844e+05 1.047655e+05 1.092718e+05 1.092718e+05 1.092718e+05 1.090793e+05 1.113314e+05 1.113314e+05 1.113314e+05 1.109726e+05 1.109726e+05 8.450657e+04 8.450657e+04 8.450657e+04 8.447263e+04 8.447263e+04 1.100580e+05 1.103947e+05 1.233887e+05 1.233887e+05 1.233887e+05 1.233345e+05 8.656844e+04 8.656844e+04 8.656844e+04 8.624249e+04 8.624249e+04 8.658237e+04 8.672498e+04 1.058860e+05 1.058860e+05 1.058860e+05 1.055376e+05 1.055376e+05 1.017623e+05 1.019162e+05 1.019162e+05 9.129605e+04 9.129605e+04 9.129605e+04 9.142909e+04 9.142909e+04 9.298680e+04 9.298680e+04 9.298680e+04 9.266962e+04 9.266962e+04 8.792944e+04 8.792944e+04 8.