<?xml version="1.0"?>
 <VTKFile type="UnstructuredGrid" version="1.0" byte_order="LittleEndian" header_type="UInt64">
  <UnstructuredGrid>
    <FieldData>
     <DataArray type="Float64" Name="TimeValue" NumberOfTuples="1" format="ascii">
0.004
     </DataArray>
    </FieldData>
   <Piece NumberOfPoints="3662" NumberOfCells="3444">
    <PointData>
     <DataArray type="Float64" Name="pointP" format="ascii">
1.253794e+05 1.255783e+05 1.258477e+05 1.256552e+05 1.254572e+05 1.255913e+05 1.254071e+05 1.253347e+05 1.252748e+05 1.252623e+05 1.252710e+05 1.252466e+05 1.252417e+05 1.250887e+05 1.251563e+05 1.248445e+05 1.248568e+05 1.247063e+05 1.246968e+05 1.244437e+05 1.243938e+05 1.240358e+05 1.238718e+05 1.242341e+05 1.236170e+05 1.240908e+05 1.233811e+05 1.236959e+05 1.233162e+05 1.228167e+05 1.230045e+05 1.225791e+05 1.228239e+05 1.224707e+05 1.223921e+05 1.217737e+05 1.219521e+05 1.217791e+05 1.211931e+05 1.208578e+05 1.206620e+05 1.204510e+05 1.204428e+05 1.200417e+05 1.198367e+05 1.199825e+05 1.195612e+05 1.192064e+05 1.188915e+05 1.186243e+05 1.183486e+05 1.181964e+05 1.187493e+05 1.179273e+05 1.175920e+05 1.173376e+05 1.169728e+05 1.167216e+05 1.164896e+05 1.163289e+05 1.159844e+05 1.157444e+05 1.153274e+05 1.150065e+05 1.145873e+05 1.143555e+05 1.140062e+05 1.137405e+05 1.134364e+05 1.131668e+05 1.127892e+05 1.124842e+05 1.122270e+05 1.120139e+05 1.116998e+05 1.114611e+05 1.111509e+05 1.108208e+05 1.104817e+05 1.100960e+05 1.097940e+05 1.095084e+05 1.091148e+05 1.088107e+05 1.084935e+05 1.081710e+05 1.078406e+05 1.075180e+05 1.072078e+05 1.069342e+05 1.066283e+05 1.062369e+05 1.059393e+05 1.055277e+05 1.052073e+05 1.048898e+05 1.044801e+05 1.041417e+05 1.038324e+05 1.035164e+05 1.031700e+05 1.028293e+05 1.025091e+05 1.021150e+05 1.017957e+05 1.013750e+05 1.010603e+05 1.007463e+05 1.004370e+05 1.001547e+05 9.986646e+04 9.950111e+04 9.920307e+04 9.888515e+04 9.856701e+04 9.828275e+04 9.786756e+04 9.754492e+04 9.724418e+04 9.691693e+04 9.659939e+04 9.630928e+04 9.594962e+04 9.594962e+04 1.025866e+05 1.038842e+05 1.045148e+05 1.045903e+05 1.047765e+05 1.050205e+05 1.052053e+05 1.052053e+05 1.052357e+05 1.053350e+05 1.054127e+05 1.054127e+05 1.056646e+05 1.056646e+05 1.059446e+05 1.060882e+05 1.061475e+05 1.063611e+05 1.065843e+05 1.071520e+05 1.071520e+05 1.077757e+05 1.077757e+05 1.081210e+05 1.089038e+05 1.090936e+05 1.096069e+05 1.098613e+05 1.105852e+05 1.110952e+05 1.116056e+05 1.124553e+05 1.127022e+05 1.135779e+05 1.144081e+05 1.150730e+05 1.156958e+05 1.156958e+05 1.163283e+05 1.174557e+05 1.174557e+05 1.186456e+05 1.190620e+05 1.190620e+05 1.198911e+05 1.207669e+05 1.207669e+05 1.214749e+05 1.218995e+05 1.225446e+05 1.225446e+05 1.229277e+05 1.236668e+05 1.240467e+05 1.246258e+05 1.248106e+05 1.024949e+05 1.076179e+05 1.076179e+05 1.076179e+05 1.078930e+05 1.060318e+05 1.060318e+05 1.060318e+05 1.064303e+05 1.064303e+05 1.083738e+05 1.083738e+05 1.083738e+05 1.084844e+05 1.083112e+05 1.017769e+05 1.066579e+05 1.066579e+05 1.063580e+05 1.077242e+05 1.077242e+05 1.077242e+05 1.075019e+05 1.073115e+05 1.151078e+05 1.151078e+05 1.151078e+05 1.148254e+05 1.037281e+05 1.037281e+05 1.037281e+05 1.035236e+05 1.032942e+05 1.032942e+05 1.073033e+05 1.073033e+05 1.060375e+05 1.058337e+05 1.024949e+05 1.024949e+05 1.047766e+05 1.047766e+05 1.047766e+05 1.046378e+05 1.043221e+05 1.043221e+05 1.045516e+05 1.066905e+05 1.066905e+05 1.066905e+05 1.067180e+05 1.063525e+05 1.072031e+05 1.071736e+05 1.045092e+05 1.045092e+05 1.045092e+05 1.040578e+05 1.003877e+05 9.931203e+04 9.840569e+04 9.931203e+04 1.131696e+05 1.131696e+05 1.131696e+05 1.157073e+05 1.157073e+05 1.157073e+05 1.150940e+05 9.713902e+04 9.673479e+04 9.713902e+04 9.713902e+04 1.120797e+05 1.120797e+05 1.120797e+05 1.120575e+05 1.176122e+05 1.176122e+05 1.176122e+05 1.174563e+05 1.202860e+05 1.202860e+05 1.202860e+05 1.197451e+05 1.197451e+05 9.892937e+04 9.892937e+04 9.892937e+04 9.872144e+04 1.017142e+05 1.017142e+05 1.017142e+05 1.012799e+05 1.012799e+05 1.230143e+05 1.230143e+05 1.230143e+05 1.232334e+05 1.083037e+05 1.083037e+05 1.083037e+05 1.083436e+05 1.083436e+05 9.570680e+04 9.590064e+04 1.205832e+05 1.205832e+05 1.205832e+05 1.204773e+05 1.221770e+05 1.221770e+05 1.221770e+05 1.224543e+05 1.224543e+05 1.107160e+05 1.107160e+05 1.107160e+05 1.106192e+05 1.214113e+05 1.214113e+05 1.214113e+05 1.212261e+05 9.888515e+04 1.150223e+05 1.150223e+05 1.150223e+05 1.119180e+05 1.119180e+05 1.119180e+05 1.117778e+05 1.090234e+05 1.090234e+05 1.090234e+05 1.089092e+05 1.041417e+05 1.026756e+05 1.026756e+05 1.026756e+05 1.025217e+05 1.069928e+05 1.069928e+05 1.069928e+05 1.070275e+05 1.070275e+05 9.590064e+04 9.590064e+04 9.570680e+04 1.203188e+05 1.203188e+05 1.203188e+05 1.209380e+05 1.209380e+05 1.082941e+05 1.086075e+05 1.086075e+05 1.173660e+05 1.173660e+05 1.173660e+05 1.179722e+05 1.179722e+05 1.167173e+05 1.167173e+05 1.167173e+05 1.169149e+05 9.891921e+04 9.845532e+04 9.891921e+04 9.891921e+04 9.914317e+04 1.063208e+05 1.063208e+05 1.063208e+05 1.067342e+05 1.073050e+05 1.079227e+05 1.079227e+05 1.035035e+05 1.035035e+05 1.026713e+05 1.026713e+05 1.087177e+05 1.087177e+05 1.087177e+05 1.095015e+05 1.095015e+05 1.029736e+05 1.029736e+05 1.029736e+05 1.029418e+05 1.026040e+05 1.054385e+05 1.045846e+05 1.122074e+05 1.122074e+05 1.122074e+05 1.119452e+05 1.144566e+05 1.144566e+05 1.144566e+05 1.140853e+05 1.092534e+05 1.092534e+05 1.092534e+05 1.166832e+05 1.166832e+05 1.166832e+05 1.036857e+05 1.036857e+05 1.036857e+05 1.188277e+05 1.188277e+05 1.188277e+05 9.905717e+04 9.905717e+04 9.905717e+04 9.899522e+04 9.864865e+04 1.041025e+05 1.041025e+05 1.041025e+05 9.971247e+04 9.971247e+04 9.976751e+04 1.105523e+05 1.105523e+05 1.105523e+05 1.109144e+05 1.054358e+05 1.054358e+05 1.054358e+05 1.054081e+05 1.033124e+05 1.033124e+05 1.222538e+05 1.222538e+05 1.222538e+05 1.219137e+05 9.714280e+04 9.714280e+04 9.714280e+04 9.714729e+04 1.006232e+05 1.006232e+05 1.006232e+05 1.006988e+05 1.204417e+05 1.204417e+05 1.204417e+05 1.128067e+05 1.128067e+05 1.128067e+05 1.129120e+05 1.062402e+05 1.062402e+05 1.062402e+05 1.062970e+05 1.060380e+05 1.060380e+05 1.060380e+05 1.059300e+05 1.089446e+05 1.089446e+05 1.089446e+05 1.091602e+05 1.242056e+05 1.242056e+05 1.242056e+05 1.231025e+05 1.231025e+05 1.231025e+05 1.230841e+05 1.221635e+05 1.221635e+05 1.221635e+05 1.219841e+05 1.206278e+05 1.206278e+05 1.204985e+05 1.125321e+05 1.125321e+05 1.124853e+05 1.008990e+05 1.008990e+05 1.009594e+05 1.075955e+05 1.075955e+05 1.075955e+05 1.077295e+05 1.102462e+05 1.102462e+05 1.102462e+05 1.230361e+05 1.230361e+05 1.230069e+05 1.114069e+05 1.114069e+05 1.112657e+05 1.079268e+05 1.214398e+05 1.214072e+05 1.021720e+05 1.021720e+05 1.019672e+05 1.241453e+05 1.241453e+05 1.241453e+05 1.243640e+05 1.098883e+05 1.098883e+05 1.193898e+05 1.193898e+05 1.193898e+05 1.244688e+05 1.244688e+05 1.244688e+05 1.244092e+05 1.244092e+05 1.235644e+05 1.235644e+05 1.235644e+05 1.238106e+05 1.224345e+05 1.224345e+05 1.224345e+05 1.222547e+05 1.222547e+05 1.036647e+05 1.036647e+05 1.036647e+05 1.033591e+05 1.033591e+05 1.224660e+05 1.224660e+05 1.228308e+05 1.228308e+05 1.236974e+05 1.236974e+05 1.236974e+05 1.203441e+05 1.203441e+05 1.203441e+05 1.208024e+05 1.022734e+05 1.022734e+05 1.022734e+05 1.022719e+05 1.022719e+05 9.655424e+04 9.655424e+04 9.655424e+04 9.697389e+04 9.697389e+04 1.069454e+05 1.069454e+05 1.069454e+05 1.076620e+05 1.076620e+05 1.133164e+05 1.133164e+05 1.133164e+05 1.136591e+05 1.136591e+05 1.161613e+05 1.161613e+05 1.161613e+05 1.168268e+05 1.171963e+05 1.171963e+05 1.190639e+05 1.190639e+05 1.190639e+05 1.183505e+05 1.183505e+05 1.005241e+05 1.005241e+05 1.005241e+05 1.008292e+05 1.008292e+05 1.051802e+05 1.051802e+05 1.051802e+05 1.061126e+05 1.061126e+05 1.053603e+05 1.053603e+05 1.044671e+05 1.044671e+05 1.103517e+05 1.103517e+05 1.110564e+05 1.110564e+05 1.054904e+05 1.045514e+05 1.045514e+05 1.095812e+05 1.095812e+05 1.095812e+05 1.097440e+05 1.097440e+05 1.082305e+05 1.082305e+05 1.035884e+05 1.035884e+05 1.035884e+05 1.037734e+05 1.071465e+05 1.011948e+05 1.008620e+05 1.050660e+05 1.050660e+05 1.050660e+05 1.051866e+05 1.051866e+05 1.010574e+05 1.010574e+05 1.006242e+05 1.004490e+05 1.006618e+05 1.178343e+05 1.178343e+05 1.178343e+05 1.174140e+05 1.199451e+05 1.199451e+05 1.195932e+05 1.065041e+05 1.065041e+05 1.065041e+05 9.769686e+04 9.769686e+04 9.769686e+04 9.751155e+04 9.740735e+04 1.232661e+05 1.232661e+05 1.232661e+05 1.093387e+05 1.011871e+05 9.847849e+04 9.847849e+04 1.218427e+05 1.218427e+05 1.140062e+05 1.140840e+05 1.140840e+05 1.140840e+05 1.161487e+05 1.161487e+05 1.161487e+05 1.160687e+05 1.258477e+05 1.251478e+05 1.251478e+05 1.247403e+05 1.247403e+05 1.247403e+05 1.248820e+05 1.039303e+05 1.039303e+05 1.037349e+05 1.048898e+05 1.251452e+05 1.251452e+05 1.233353e+05 1.233353e+05 1.060897e+05 1.060897e+05 9.992696e+04 9.992696e+04 9.992696e+04 1.246731e+05 1.246731e+05 1.247921e+05 9.581208e+04 9.581208e+04 9.609976e+04 1.225950e+05 1.243907e+05 1.241231e+05 1.241231e+05 1.241004e+05 1.134995e+05 1.134995e+05 1.134995e+05 1.134895e+05 1.181964e+05 1.180723e+05 1.256552e+05 1.250075e+05 1.201164e+05 1.201164e+05 1.186171e+05 1.186171e+05 1.186171e+05 1.186156e+05 1.056555e+05 1.056555e+05 1.053531e+05 1.053531e+05 1.119482e+05 1.238255e+05 1.238255e+05 1.235783e+05 1.154823e+05 1.154823e+05 1.154823e+05 9.950111e+04 1.253347e+05 1.247161e+05 1.172126e+05 1.172126e+05 1.172126e+05 1.170293e+05 9.941556e+04 9.941556e+04 9.932606e+04 1.167260e+05 1.167260e+05 1.167305e+05 1.017464e+05 1.017464e+05 1.069912e+05 1.069912e+05 1.249238e+05 1.211931e+05 1.212120e+05 1.163626e+05 1.245325e+05 1.245325e+05 1.191888e+05 1.005840e+05 1.003553e+05 1.003553e+05 1.046174e+05 1.046174e+05 1.044128e+05 1.044128e+05 1.235117e+05 1.235117e+05 1.143803e+05 1.246114e+05 1.129347e+05 1.129347e+05 1.130877e+05 1.176611e+05 1.176611e+05 1.176611e+05 1.249754e+05 1.249754e+05 1.090404e+05 9.831640e+04 9.831640e+04 1.179872e+05 1.179148e+05 1.195620e+05 1.116136e+05 9.630928e+04 9.659939e+04 1.239305e+05 1.158585e+05 9.685693e+04 9.685693e+04 9.685693e+04 9.653025e+04 1.232167e+05 9.606581e+04 1.006088e+05 1.006088e+05 1.192064e+05 1.181940e+05 1.029952e+05 1.029952e+05 1.240933e+05 1.240933e+05 9.773583e+04 9.773583e+04 1.047488e+05 1.149732e+05 1.149732e+05 1.018955e+05 1.047503e+05 1.087133e+05 1.086139e+05 1.144332e+05 1.144332e+05 1.140500e+05 1.140500e+05 1.012879e+05 1.086803e+05 1.247926e+05 9.679296e+04 1.082522e+05 1.188363e+05 1.218347e+05 9.653006e+04 1.025731e+05 1.029159e+05 1.043901e+05 1.184000e+05 1.182909e+05 1.248615e+05 1.248615e+05 1.145178e+05 1.141836e+05 1.204114e+05 1.035909e+05 1.220659e+05 1.220659e+05 1.196659e+05 1.196659e+05 1.196659e+05 1.074862e+05 1.139213e+05 9.989294e+04 1.227058e+05 1.228673e+05 1.228928e+05 1.228928e+05 1.228928e+05 1.175162e+05 1.175162e+05 1.175162e+05 1.177022e+05 1.246601e+05 1.135761e+05 1.135533e+05 1.080671e+05 1.080671e+05 1.080671e+05 1.190600e+05 1.190600e+05 1.190600e+05 1.193632e+05 1.165078e+05 1.165078e+05 1.167694e+05 1.121587e+05 1.119211e+05 1.012660e+05 1.013777e+05 1.004254e+05 1.004254e+05 1.002671e+05 9.814566e+04 9.814566e+04 9.798135e+04 9.798135e+04 1.038603e+05 1.242569e+05 1.067844e+05 1.246251e+05 1.244377e+05 1.242480e+05 1.242480e+05 1.240279e+05 1.240279e+05 1.196690e+05 1.202990e+05 1.110637e+05 1.232801e+05 1.232801e+05 1.197482e+05 1.197482e+05 1.225119e+05 1.096943e+05 1.096943e+05 1.096943e+05 1.212785e+05 1.095750e+05 9.881210e+04 9.881210e+04 9.881210e+04 9.888178e+04 9.888178e+04 1.170988e+05 1.171442e+05 1.242948e+05 1.242948e+05 1.246086e+05 9.738785e+04 9.756063e+04 1.160651e+05 1.160651e+05 1.145050e+05 1.178085e+05 1.233886e+05 9.958574e+04 9.958574e+04 9.958574e+04 9.997044e+04 1.244349e+05 1.244349e+05 1.242965e+05 1.241261e+05 1.237079e+05 1.237079e+05 1.048979e+05 1.048979e+05 1.048979e+05 1.056014e+05 1.007822e+05 1.056704e+05 1.053499e+05 1.053499e+05 1.127000e+05 1.110182e+05 1.110182e+05 1.114356e+05 1.202078e+05 1.196533e+05 1.196533e+05 1.234877e+05 1.234877e+05 9.591404e+04 1.132785e+05 1.132785e+05 1.076560e+05 1.071978e+05 1.071978e+05 1.102577e+05 1.103182e+05 1.132488e+05 1.226228e+05 1.004649e+05 1.004649e+05 1.004649e+05 1.030011e+05 1.233560e+05 1.232143e+05 1.095228e+05 1.095228e+05 1.224810e+05 1.224810e+05 1.224810e+05 1.168554e+05 1.168554e+05 1.168554e+05 1.142439e+05 1.042345e+05 1.163191e+05 1.163191e+05 1.163191e+05 9.777688e+04 1.242234e+05 1.031814e+05 1.037693e+05 1.126907e+05 1.127136e+05 1.127136e+05 1.155421e+05 1.116930e+05 1.236610e+05 1.237856e+05 1.237856e+05 1.108629e+05 1.218515e+05 1.218515e+05 1.217734e+05 1.215149e+05 1.225073e+05 1.220941e+05 1.220941e+05 1.212294e+05 1.158722e+05 1.158722e+05 1.156686e+05 1.156686e+05 1.217035e+05 1.217035e+05 1.212292e+05 1.212292e+05 1.101589e+05 1.238595e+05 1.234306e+05 1.119787e+05 1.119787e+05 1.188324e+05 9.655068e+04 1.194086e+05 1.208436e+05 1.184028e+05 1.184028e+05 1.079497e+05 1.008906e+05 1.169874e+05 1.222219e+05 1.223673e+05 1.223673e+05 1.002266e+05 1.171028e+05 1.171028e+05 1.175180e+05 1.097800e+05 1.097800e+05 1.097800e+05 1.060879e+05 1.149925e+05 9.905250e+04 9.905250e+04 9.918200e+04 1.189538e+05 1.189538e+05 1.166798e+05 1.227448e+05 1.227448e+05 1.227448e+05 1.134002e+05 1.232016e+05 1.143330e+05 1.180386e+05 1.177959e+05 1.115273e+05 1.112521e+05 1.112521e+05 1.047215e+05 1.044333e+05 1.044333e+05 9.818708e+04 9.789826e+04 1.039749e+05 1.036002e+05 1.036002e+05 1.227162e+05 1.227162e+05 1.227162e+05 1.217083e+05 1.213024e+05 1.213024e+05 1.065325e+05 1.229541e+05 1.182344e+05 1.122060e+05 1.122060e+05 9.602110e+04 9.602110e+04 1.019014e+05 1.234327e+05 1.234327e+05 1.075010e+05 1.196181e+05 1.190558e+05 1.190558e+05 1.139201e+05 1.139201e+05 1.187672e+05 1.187672e+05 1.112419e+05 1.105016e+05 1.026830e+05 1.173911e+05 1.229937e+05 1.229937e+05 1.214950e+05 1.162600e+05 1.162600e+05 1.155893e+05 1.155893e+05 9.592756e+04 1.106101e+05 1.049516e+05 1.053231e+05 1.127162e+05 1.123677e+05 1.017761e+05 1.150391e+05 1.150391e+05 1.150391e+05 1.219728e+05 1.219728e+05 1.224574e+05 1.024957e+05 1.024957e+05 1.024957e+05 1.001828e+05 1.001828e+05 1.191780e+05 1.191780e+05 1.196910e+05 1.222083e+05 1.219834e+05 1.094969e+05 1.207168e+05 1.207168e+05 1.204449e+05 1.118485e+05 1.213398e+05 1.213398e+05 1.143918e+05 1.043969e+05 1.043969e+05 1.043969e+05 1.036970e+05 1.166728e+05 9.680642e+04 9.746579e+04 9.818091e+04 9.930691e+04 1.163421e+05 1.158876e+05 1.062057e+05 1.227092e+05 1.215289e+05 1.215289e+05 1.215289e+05 1.216486e+05 1.056524e+05 1.219128e+05 1.196763e+05 1.198518e+05 1.145510e+05 1.145510e+05 1.145510e+05 1.090323e+05 1.090323e+05 1.090323e+05 1.102337e+05 1.102337e+05 1.211096e+05 1.207507e+05 1.207507e+05 1.207507e+05 1.101846e+05 1.182115e+05 1.182115e+05 1.182115e+05 1.112845e+05 1.152351e+05 1.152351e+05 1.152351e+05 1.015368e+05 1.015368e+05 1.015368e+05 9.893029e+04 1.050085e+05 1.198235e+05 1.198235e+05 1.180754e+05 1.216194e+05 1.075502e+05 1.066716e+05 1.066716e+05 1.066716e+05 1.128372e+05 1.193704e+05 1.190866e+05 1.021722e+05 1.016865e+05 1.114925e+05 9.732331e+04 1.201401e+05 1.201401e+05 1.208423e+05 1.207814e+05 1.167728e+05 1.106387e+05 1.202020e+05 1.063971e+05 1.063971e+05 1.097152e+05 1.122719e+05 1.087310e+05 1.087310e+05 1.084593e+05 1.076328e+05 1.005738e+05 1.005738e+05 1.144950e+05 1.144950e+05 1.149855e+05 1.158330e+05 1.194091e+05 1.191829e+05 1.107720e+05 1.113975e+05 1.167510e+05 1.212958e+05 1.209338e+05 1.012684e+05 9.836264e+04 9.836264e+04 9.836264e+04 1.194956e+05 1.194956e+05 1.135461e+05 1.135461e+05 1.130812e+05 1.186858e+05 1.163361e+05 1.157518e+05 1.157518e+05 1.042617e+05 1.042617e+05 1.048977e+05 1.029305e+05 1.029305e+05 1.093111e+05 1.025590e+05 1.019261e+05 1.069066e+05 1.055370e+05 1.073451e+05 1.081713e+05 1.161863e+05 1.136651e+05 1.136651e+05 1.136651e+05 1.147677e+05 1.188325e+05 1.201695e+05 1.104925e+05 1.187948e+05 1.132161e+05 1.132161e+05 1.140473e+05 1.118896e+05 1.118896e+05 1.113892e+05 1.113892e+05 1.080941e+05 1.084255e+05 9.859954e+04 9.898344e+04 1.107397e+05 1.037466e+05 1.127734e+05 1.127734e+05 1.092551e+05 1.092551e+05 1.092551e+05 1.085724e+05 1.183387e+05 1.178577e+05 1.096950e+05 1.014123e+05 1.069502e+05 1.146903e+05 1.104531e+05 1.104531e+05 1.128426e+05 1.128426e+05 1.027187e+05 1.027187e+05 1.118235e+05 1.180743e+05 1.165004e+05 1.165004e+05 1.156877e+05 9.951391e+04 1.127446e+05 1.173838e+05 1.072491e+05 1.072491e+05 1.066465e+05 1.093546e+05 1.098803e+05 1.159500e+05 1.159500e+05 1.073658e+05 1.073658e+05 1.038129e+05 1.028981e+05 1.028981e+05 1.084404e+05 1.147027e+05 1.016663e+05 1.119486e+05 1.139451e+05 1.154690e+05 9.967539e+04 1.035211e+05 1.124435e+05 1.124435e+05 1.138552e+05 1.002283e+05 9.914317e+04 1.020816e+05 1.020816e+05 1.020816e+05 1.029716e+05 1.084478e+05 1.084478e+05 1.136128e+05 1.136128e+05 1.125529e+05 1.125529e+05 1.093578e+05 1.008531e+05 1.003703e+05 1.104471e+05 1.104471e+05 1.104471e+05 1.102588e+05 1.061219e+05 1.061219e+05 1.104665e+05 1.104665e+05 1.085434e+05 1.085434e+05 1.082709e+05 9.908213e+04 9.908213e+04 9.908213e+04 9.846163e+04 1.077019e+05 1.067794e+05 1.067794e+05 1.013502e+05 1.026292e+05 9.931203e+04 9.986488e+04 1.006610e+05 1.006610e+05 1.069928e+05 1.111650e+05 1.040713e+05 1.042379e+05 1.068898e+05 1.033963e+05 1.033963e+05 1.088633e+05 1.086295e+05 1.114787e+05 1.017485e+05 1.017485e+05 1.009581e+05 1.102078e+05 1.102078e+05 1.090337e+05 1.016010e+05 1.009376e+05 1.009376e+05 1.009376e+05 1.002046e+05 1.082451e+05 1.004801e+05 1.023366e+05 1.057068e+05 1.004801e+05 1.029289e+05 1.011992e+05 1.011992e+05 1.049974e+05 1.046660e+05 1.026035e+05 1.023102e+05 1.047474e+05 1.047474e+05 1.047474e+05 1.023285e+05 1.053019e+05 1.053019e+05 1.053019e+05 1.042382e+05 1.042382e+05 1.035597e+05 1.026919e+05 1.046640e+05 1.031761e+05 1.029396e+05 1.041345e+05 1.034152e+05 1.038179e+05 1.046047e+05 1.046047e+05 1.025701e+05 1.025701e+05 1.030145e+05 1.047356e+05 1.047356e+05 1.047356e+05 1.049396e+05 1.049396e+05 1.040969e+05 1.040969e+05 1.040969e+05 1.144258e+05 1.149510e+05 1.149510e+05 1.149510e+05 1.017769e+05 1.017769e+05 1.151441e+05 1.151441e+05 1.151441e+05 1.156912e+05 1.156912e+05 1.028213e+05 1.022030e+05 1.140821e+05 1.140821e+05 1.136202e+05 1.017323e+05 1.160538e+05 1.156647e+05 1.157929e+05 1.011948e+05 1.019925e+05 1.021716e+05 1.053288e+05 1.053288e+05 1.054589e+05 1.225441e+05 1.095783e+05 1.095783e+05 1.095783e+05 1.086124e+05 1.125259e+05 1.125259e+05 1.125259e+05 1.128395e+05 1.124709e+05 1.124709e+05 1.196335e+05 1.104208e+05 1.104208e+05 1.104208e+05 1.103156e+05 1.063638e+05 1.219038e+05 1.219038e+05 1.219038e+05 1.123737e+05 1.188141e+05 1.188141e+05 1.170430e+05 1.170430e+05 1.170430e+05 1.114405e+05 1.114405e+05 1.114405e+05 1.131476e+05 1.115343e+05 1.115343e+05 1.117827e+05 1.139759e+05 1.094253e+05 1.117640e+05 1.111029e+05 1.108168e+05 1.090020e+05 1.083089e+05 1.100567e+05 1.077638e+05 1.069369e+05 1.076478e+05 1.076478e+05 1.066609e+05 1.066609e+05 1.066609e+05 1.052053e+05 1.207773e+05 1.136297e+05 1.136297e+05 1.115859e+05 1.106541e+05 1.091432e+05 1.091432e+05 1.185076e+05 1.185076e+05 1.162486e+05 1.162486e+05 1.141008e+05 1.131018e+05 1.100332e+05 1.082249e+05 1.067139e+05 1.067139e+05 1.054049e+05 1.058830e+05 1.206526e+05 1.206526e+05 1.088685e+05 1.069632e+05 1.069632e+05 1.077263e+05 1.070553e+05 1.065467e+05 1.059812e+05 1.059812e+05 1.059812e+05 1.060702e+05 1.060702e+05 1.058210e+05 1.056780e+05 1.056780e+05 1.056780e+05 1.068075e+05 1.068075e+05 1.021962e+05 1.054859e+05 1.054859e+05 1.056194e+05 1.054178e+05 1.054178e+05 1.024294e+05 1.030602e+05 1.024483e+05 1.053278e+05 1.053278e+05 1.053278e+05 1.051969e+05 1.058025e+05 1.039251e+05 1.052736e+05 1.155896e+05 1.049138e+05 1.045728e+05 1.050758e+05 1.050205e+05 1.162861e+05 1.178770e+05 1.178770e+05 1.189714e+05 1.189714e+05 1.201442e+05 1.201442e+05 1.201442e+05 1.210288e+05 1.213536e+05 1.213536e+05 1.213536e+05 1.232292e+05 1.052512e+05 1.054587e+05 1.054587e+05 1.054587e+05 1.056680e+05 1.059492e+05 1.061336e+05 1.087131e+05 1.058709e+05 1.061829e+05 1.063223e+05 1.062467e+05 1.066433e+05 1.064962e+05 1.061128e+05 1.055134e+05 1.058581e+05 1.055736e+05 1.055736e+05 1.053483e+05 1.053483e+05 1.058746e+05 1.055588e+05 1.052664e+05 1.051697e+05 1.165507e+05 1.173729e+05 1.208494e+05 1.240900e+05 1.253794e+05 1.254078e+05 1.254919e+05 1.256351e+05 1.254326e+05 1.253582e+05 1.252932e+05 1.251941e+05 1.251583e+05 1.251703e+05 1.251347e+05 1.039580e+05 1.039580e+05 1.046368e+05 1.046368e+05 1.048109e+05 1.050376e+05 1.051935e+05 1.051935e+05 1.051935e+05 1.052063e+05 1.049717e+05 1.049717e+05 1.046013e+05 1.046013e+05 1.046013e+05 1.066523e+05 1.066523e+05 1.066523e+05 1.068279e+05 1.068279e+05 1.044783e+05 1.044783e+05 1.044783e+05 1.046852e+05 1.039580e+05 1.039459e+05 1.039459e+05 1.051775e+05 1.057052e+05 1.057052e+05 1.245235e+05 1.245235e+05 1.245235e+05 1.248693e+05 1.248693e+05 1.045886e+05 1.049126e+05 1.049126e+05 1.246889e+05 1.246889e+05 1.245041e+05 1.190496e+05 1.190496e+05 1.190496e+05 1.156184e+05 1.156184e+05 1.156184e+05 1.147668e+05 1.147668e+05 1.054019e+05 1.227320e+05 1.227320e+05 1.227320e+05 1.225302e+05 1.249809e+05 1.249809e+05 1.249809e+05 1.248315e+05 1.246173e+05 1.238342e+05 1.238342e+05 1.238342e+05 1.249189e+05 1.245420e+05 1.245420e+05 1.245420e+05 1.246615e+05 1.172833e+05 1.182116e+05 1.172833e+05 1.172833e+05 1.071907e+05 1.071907e+05 1.038400e+05 1.195208e+05 1.195208e+05 1.249314e+05 1.251703e+05 1.248794e+05 1.248794e+05 1.246615e+05 1.240467e+05 1.236668e+05 1.245835e+05 1.244362e+05 1.240449e+05 1.240449e+05 1.240358e+05 1.237550e+05 1.241501e+05 1.240358e+05 1.238423e+05 1.231600e+05 1.231600e+05 1.233061e+05 1.233061e+05 1.235382e+05 1.230123e+05 1.230021e+05 1.226455e+05 1.226455e+05 1.223365e+05 1.226279e+05 1.218219e+05 1.209129e+05 1.209129e+05 1.182116e+05 1.161631e+05 1.161631e+05 1.152859e+05 1.152859e+05 1.145776e+05 1.139459e+05 1.119898e+05 1.060736e+05 1.038400e+05 1.038400e+05 1.056006e+05 1.056006e+05 1.056006e+05 1.055261e+05 1.048663e+05 1.057711e+05 1.057711e+05 1.057711e+05 1.057320e+05 1.063256e+05 1.063256e+05 1.063256e+05 1.062411e+05 1.060882e+05 1.081403e+05 1.081403e+05 1.081403e+05 1.084277e+05 1.105378e+05 1.105378e+05 1.105378e+05 1.104157e+05 1.099599e+05 1.085658e+05 1.085658e+05 1.082712e+05 1.131780e+05 1.131780e+05 1.131780e+05 1.135779e+05 1.135779e+05 1.123844e+05 1.123844e+05 1.123844e+05 1.069071e+05 1.069071e+05 1.122238e+05 1.122238e+05 1.122238e+05 1.118700e+05 1.118700e+05 1.171351e+05 1.171351e+05 1.171351e+05 1.149950e+05 1.149950e+05 1.149950e+05 1.108203e+05 1.108203e+05 1.108203e+05 1.062445e+05 1.147961e+05 1.144438e+05 1.120499e+05 1.116056e+05 1.170206e+05 1.153435e+05 1.153435e+05 1.102023e+05 1.102023e+05 1.118994e+05 1.112336e+05 1.138197e+05 1.138197e+05 1.138197e+05 1.170391e+05 1.195208e+05 1.120634e+05 1.094316e+05 1.094316e+05 1.094316e+05 1.135234e+05 1.111989e+05 1.095553e+05 1.086862e+05 1.078534e+05 1.102003e+05 1.078472e+05 1.076179e+05 1.074933e+05 1.074933e+05 1.052015e+05 1.198911e+05 1.198911e+05 1.146537e+05 1.090936e+05 1.090936e+05 1.135443e+05 1.215946e+05 1.082463e+05 1.082463e+05 1.070646e+05 1.070646e+05 1.070646e+05 1.126253e+05 1.154808e+05 1.071804e+05 1.080969e+05 1.071444e+05 1.066482e+05 1.065965e+05 1.065965e+05 1.065965e+05 1.061679e+05 1.061679e+05 1.063781e+05 1.062843e+05 1.062843e+05 1.059530e+05 1.058934e+05 1.054019e+05 1.056930e+05 1.056930e+05 1.051323e+05 1.053050e+05 1.151512e+05 1.191450e+05 1.191450e+05 1.210833e+05 1.210833e+05 1.175767e+05 1.049040e+05 1.096069e+05 1.143555e+05 1.156958e+05 1.160313e+05 1.170653e+05 1.170653e+05 1.182520e+05 1.182520e+05 1.182520e+05 1.192889e+05 1.201211e+05 1.207669e+05 1.214749e+05 1.214749e+05 1.214950e+05 1.234474e+05 1.071520e+05 1.077757e+05 1.167182e+05 1.218995e+05 1.081210e+05 1.085869e+05 1.069991e+05 1.065843e+05 1.072918e+05 1.066622e+05 1.059446e+05 1.077268e+05 1.060419e+05 1.060419e+05 1.058536e+05 1.058176e+05 1.054127e+05 1.054021e+05 1.054021e+05 1.053350e+05 1.055456e+05 1.055770e+05 1.160006e+05 1.177340e+05 1.197278e+05 1.221500e+05 1.197269e+05 1.204650e+05 1.180259e+05 1.218059e+05 1.204487e+05 1.052762e+05 1.046368e+05 1.253794e+05 1.255783e+05 1.258477e+05 1.256552e+05 1.254572e+05 1.255913e+05 1.254071e+05 1.253347e+05 1.252748e+05 1.252623e+05 1.252710e+05 1.252466e+05 1.252417e+05 1.250887e+05 1.251563e+05 1.248445e+05 1.248568e+05 1.247063e+05 1.246968e+05 1.244437e+05 1.243938e+05 1.240358e+05 1.238718e+05 1.242341e+05 1.236170e+05 1.240908e+05 1.233811e+05 1.236959e+05 1.233162e+05 1.228167e+05 1.230045e+05 1.225791e+05 1.228239e+05 1.224707e+05 1.223921e+05 1.217737e+05 1.219521e+05 1.217791e+05 1.211931e+05 1.208578e+05 1.206620e+05 1.204510e+05 1.204428e+05 1.200417e+05 1.198367e+05 1.199825e+05 1.195612e+05 1.192064e+05 1.188915e+05 1.186243e+05 1.183486e+05 1.181964e+05 1.187493e+05 1.179273e+05 1.175920e+05 1.173376e+05 1.169728e+05 1.167216e+05 1.164896e+05 1.163289e+05 1.159844e+05 1.157444e+05 1.153274e+05 1.150065e+05 1.145873e+05 1.143555e+05 1.140062e+05 1.137405e+05 1.134364e+05 1.131668e+05 1.127892e+05 1.124842e+05 1.122270e+05 1.120139e+05 1.116998e+05 1.114611e+05 1.111509e+05 1.108208e+05 1.104817e+05 1.100960e+05 1.097940e+05 1.095084e+05 1.091148e+05 1.088107e+05 1.084935e+05 1.081710e+05 1.078406e+05 1.075180e+05 1.072078e+05 1.069342e+05 1.066283e+05 1.062369e+05 1.059393e+05 1.055277e+05 1.052073e+05 1.048898e+05 1.044801e+05 1.041417e+05 1.038324e+05 1.035164e+05 1.031700e+05 1.028293e+05 1.025091e+05 1.021150e+05 1.017957e+05 1.013750e+05 1.010603e+05 1.007463e+05 1.004370e+05 1.001547e+05 9.986646e+04 9.950111e+04 9.920307e+04 9.888515e+04 9.856701e+04 9.828275e+04 9.786756e+04 9.754492e+04 9.724418e+04 9.691693e+04 9.659939e+04 9.630928e+04 9.594962e+04 9.594962e+04 1.025866e+05 1.025866e+05 1.044353e+05 1.045903e+05 1.047765e+05 1.050205e+05 1.052053e+05 1.052053e+05 1.052357e+05 1.053350e+05 1.054127e+05 1.054127e+05 1.056646e+05 1.056646e+05 1.059446e+05 1.060882e+05 1.061475e+05 1.063611e+05 1.065843e+05 1.071520e+05 1.071520e+05 1.077757e+05 1.077757e+05 1.081210e+05 1.089038e+05 1.090936e+05 1.096069e+05 1.098613e+05 1.105852e+05 1.110952e+05 1.116056e+05 1.124553e+05 1.127022e+05 1.135779e+05 1.144081e+05 1.150730e+05 1.156958e+05 1.156958e+05 1.163283e+05 1.174557e+05 1.174557e+05 1.186456e+05 1.190620e+05 1.190620e+05 1.198911e+05 1.207669e+05 1.207669e+05 1.214749e+05 1.218995e+05 1.225446e+05 1.225446e+05 1.229277e+05 1.236668e+05 1.240467e+05 1.246258e+05 1.248106e+05 1.024949e+05 1.076179e+05 1.076179e+05 1.076179e+05 1.078930e+05 1.060318e+05 1.060318e+05 1.060318e+05 1.064303e+05 1.064303e+05 1.083738e+05 1.083738e+05 1.083738e+05 1.084844e+05 1.083112e+05 1.017769e+05 1.066579e+05 1.066579e+05 1.063580e+05 1.077242e+05 1.077242e+05 1.077242e+05 1.075019e+05 1.073115e+05 1.151078e+05 1.151078e+05 1.151078e+05 1.148254e+05 1.037281e+05 1.037281e+05 1.037281e+05 1.035236e+05 1.032942e+05 1.032942e+05 1.073033e+05 1.073033e+05 1.060375e+05 1.058337e+05 1.024949e+05 1.024949e+05 1.047766e+05 1.047766e+05 1.047766e+05 1.046378e+05 1.043221e+05 1.043221e+05 1.045516e+05 1.066905e+05 1.066905e+05 1.066905e+05 1.067180e+05 1.063525e+05 1.072031e+05 1.071736e+05 1.045092e+05 1.045092e+05 1.045092e+05 1.040578e+05 1.003877e+05 9.931203e+04 9.840569e+04 9.931203e+04 1.131696e+05 1.131696e+05 1.131696e+05 1.157073e+05 1.157073e+05 1.157073e+05 1.150940e+05 9.713902e+04 9.673479e+04 9.713902e+04 9.713902e+04 1.120797e+05 1.120797e+05 1.120797e+05 1.120575e+05 1.176122e+05 1.176122e+05 1.176122e+05 1.174563e+05 1.202860e+05 1.202860e+05 1.202860e+05 1.197451e+05 1.197451e+05 9.892937e+04 9.892937e+04 9.892937e+04 9.872144e+04 1.017142e+05 1.017142e+05 1.017142e+05 1.012799e+05 1.012799e+05 1.230143e+05 1.230143e+05 1.230143e+05 1.232334e+05 1.083037e+05 1.083037e+05 1.083037e+05 1.083436e+05 1.083436e+05 9.570680e+04 9.590064e+04 1.205832e+05 1.205832e+05 1.205832e+05 1.204773e+05 1.221770e+05 1.221770e+05 1.221770e+05 1.224543e+05 1.224543e+05 1.107160e+05 1.107160e+05 1.107160e+05 1.106192e+05 1.214113e+05 1.214113e+05 1.214113e+05 1.212261e+05 9.888515e+04 1.150223e+05 1.150223e+05 1.150223e+05 1.119180e+05 1.119180e+05 1.119180e+05 1.117778e+05 1.090234e+05 1.090234e+05 1.090234e+05 1.089092e+05 1.041417e+05 1.026756e+05 1.026756e+05 1.026756e+05 1.025217e+05 1.069928e+05 1.069928e+05 1.069928e+05 1.070275e+05 1.070275e+05 9.590064e+04 9.590064e+04 9.570680e+04 1.203188e+05 1.203188e+05 1.203188e+05 1.209380e+05 1.209380e+05 1.082941e+05 1.086075e+05 1.086075e+05 1.173660e+05 1.173660e+05 1.173660e+05 1.179722e+05 1.179722e+05 1.167173e+05 1.167173e+05 1.167173e+05 1.169149e+05 9.891921e+04 9.845532e+04 9.891921e+04 9.891921e+04 9.914317e+04 1.063208e+05 1.063208e+05 1.063208e+05 1.067342e+05 1.073050e+05 1.079227e+05 1.079227e+05 1.035035e+05 1.035035e+05 1.026713e+05 1.026713e+05 1.087177e+05 1.087177e+05 1.087177e+05 1.095015e+05 1.095015e+05 1.029736e+05 1.029736e+05 1.029736e+05 1.029418e+05 1.026040e+05 1.054385e+05 1.045846e+05 1.122074e+05 1.122074e+05 1.122074e+05 1.119452e+05 1.144566e+05 1.144566e+05 1.144566e+05 1.140853e+05 1.092534e+05 1.092534e+05 1.092534e+05 1.166832e+05 1.166832e+05 1.166832e+05 1.036857e+05 1.036857e+05 1.036857e+05 1.188277e+05 1.188277e+05 1.188277e+05 9.905717e+04 9.905717e+04 9.905717e+04 9.899522e+04 9.864865e+04 1.041025e+05 1.041025e+05 1.041025e+05 9.971247e+04 9.971247e+04 9.976751e+04 1.105523e+05 1.105523e+05 1.105523e+05 1.109144e+05 1.054358e+05 1.054358e+05 1.054358e+05 1.054081e+05 1.033124e+05 1.033124e+05 1.222538e+05 1.222538e+05 1.222538e+05 1.219137e+05 9.714280e+04 9.714280e+04 9.714280e+04 9.714729e+04 1.006232e+05 1.006232e+05 1.006232e+05 1.006988e+05 1.204417e+05 1.204417e+05 1.204417e+05 1.128067e+05 1.128067e+05 1.128067e+05 1.129120e+05 1.062402e+05 1.062402e+05 1.062402e+05 1.062970e+05 1.060380e+05 1.060380e+05 1.060380e+05 1.059300e+05 1.089446e+05 1.089446e+05 1.089446e+05 1.091602e+05 1.