<?xml version="1.0"?>
 <VTKFile type="UnstructuredGrid" version="1.0" byte_order="LittleEndian" header_type="UInt64">
  <UnstructuredGrid>
    <FieldData>
     <DataArray type="Float64" Name="TimeValue" NumberOfTuples="1" format="ascii">
4e-05
     </DataArray>
    </FieldData>
   <Piece NumberOfPoints="3632" NumberOfCells="3379">
    <PointData>
     <DataArray type="Float64" Name="pointP" format="ascii">
1.037098e+05 1.037098e+05 1.037039e+05 1.036710e+05 1.037023e+05 1.036341e+05 1.036024e+05 1.035754e+05 1.035927e+05 1.034953e+05 1.034923e+05 1.034898e+05 1.034322e+05 1.033878e+05 1.033708e+05 1.033235e+05 1.032515e+05 1.031824e+05 1.031737e+05 1.031646e+05 1.030460e+05 1.030054e+05 1.029518e+05 1.028874e+05 1.028474e+05 1.027994e+05 1.027785e+05 1.027028e+05 1.026335e+05 1.025868e+05 1.025270e+05 1.024781e+05 1.024339e+05 1.023652e+05 1.023267e+05 1.022239e+05 1.021460e+05 1.021033e+05 1.020468e+05 1.019963e+05 1.019420e+05 1.018908e+05 1.018436e+05 1.017611e+05 1.017016e+05 1.016463e+05 1.015926e+05 1.015344e+05 1.014865e+05 1.014338e+05 1.013541e+05 1.013057e+05 1.012584e+05 1.011889e+05 1.011828e+05 1.010911e+05 1.009999e+05 1.009610e+05 1.009039e+05 1.008584e+05 1.008154e+05 1.007371e+05 1.006708e+05 1.006398e+05 1.006058e+05 1.005448e+05 1.004878e+05 1.004643e+05 1.004273e+05 1.003661e+05 1.002963e+05 1.002637e+05 1.002455e+05 1.002020e+05 1.001549e+05 1.001334e+05 1.000964e+05 1.000860e+05 1.000667e+05 1.000101e+05 9.999401e+04 9.996569e+04 9.994463e+04 9.994022e+04 9.989581e+04 9.989288e+04 9.989106e+04 9.989075e+04 9.985217e+04 9.986289e+04 9.985892e+04 9.984901e+04 9.987873e+04 9.984573e+04 9.987241e+04 9.987994e+04 9.988749e+04 9.987888e+04 9.987962e+04 9.988733e+04 9.989407e+04 9.992248e+04 9.994346e+04 9.994045e+04 9.993275e+04 9.996361e+04 9.997738e+04 9.997319e+04 1.000565e+05 1.000455e+05 1.000981e+05 1.001288e+05 1.001470e+05 1.001978e+05 1.002024e+05 1.002263e+05 1.002778e+05 1.002798e+05 1.003573e+05 1.004092e+05 1.004232e+05 1.004537e+05 1.005124e+05 1.005302e+05 1.006001e+05 1.006540e+05 1.006685e+05 1.006984e+05 1.007912e+05 1.008010e+05 1.008479e+05 1.009297e+05 1.009251e+05 1.010460e+05 1.010752e+05 1.011648e+05 1.011791e+05 1.012287e+05 1.013017e+05 1.013081e+05 1.013728e+05 1.014495e+05 1.014684e+05 1.015090e+05 1.015805e+05 1.015811e+05 1.016768e+05 1.016968e+05 1.017897e+05 1.018070e+05 1.018534e+05 1.019233e+05 1.019233e+05 1.019257e+05 1.019836e+05 1.020602e+05 1.021257e+05 1.021948e+05 1.021794e+05 1.022199e+05 1.023031e+05 1.023945e+05 1.023995e+05 1.024044e+05 1.024480e+05 1.025165e+05 1.025729e+05 1.025369e+05 1.026091e+05 1.026160e+05 1.026911e+05 1.027077e+05 1.027465e+05 1.027971e+05 1.028057e+05 1.028303e+05 1.028672e+05 1.028928e+05 1.029146e+05 1.029620e+05 1.029556e+05 1.023645e+05 1.023645e+05 1.023645e+05 1.023298e+05 1.023298e+05 1.023298e+05 1.024172e+05 1.023607e+05 1.023497e+05 1.023631e+05 1.024796e+05 1.024796e+05 1.024796e+05 1.024001e+05 1.024362e+05 1.024362e+05 1.024362e+05 1.023649e+05 1.024244e+05 1.030831e+05 1.030831e+05 1.030831e+05 1.031394e+05 1.029300e+05 1.029300e+05 1.029300e+05 1.028417e+05 1.007458e+05 1.007458e+05 1.007458e+05 1.007276e+05 1.007645e+05 1.008433e+05 1.021135e+05 1.021135e+05 1.021135e+05 1.020629e+05 1.020629e+05 1.021409e+05 1.021409e+05 1.021409e+05 1.021479e+05 1.023258e+05 1.023258e+05 1.023258e+05 1.022637e+05 1.022637e+05 1.036024e+05 1.036024e+05 1.036024e+05 1.002910e+05 1.002910e+05 1.002910e+05 1.003460e+05 1.002810e+05 1.002810e+05 1.002810e+05 1.014391e+05 1.014391e+05 1.014391e+05 1.013829e+05 1.008813e+05 1.008813e+05 1.009912e+05 1.009912e+05 1.002878e+05 1.002878e+05 1.003349e+05 1.015994e+05 1.015994e+05 1.015994e+05 1.016315e+05 1.016315e+05 1.025135e+05 1.025135e+05 1.025135e+05 1.024898e+05 1.024898e+05 1.024202e+05 1.024202e+05 1.024202e+05 1.023470e+05 1.023470e+05 1.030414e+05 1.030414e+05 1.006088e+05 1.006088e+05 1.006088e+05 1.006982e+05 1.000122e+05 1.000122e+05 1.000122e+05 9.999434e+04 1.000851e+05 1.005184e+05 1.005184e+05 1.005184e+05 1.003135e+05 1.003135e+05 1.003258e+05 1.022239e+05 1.022565e+05 1.022565e+05 1.027971e+05 1.028039e+05 1.028039e+05 9.992819e+04 1.006001e+05 1.006481e+05 1.024420e+05 1.024028e+05 1.024028e+05 1.024028e+05 1.023803e+05 1.024192e+05 1.023174e+05 1.023174e+05 1.023174e+05 1.023251e+05 1.023251e+05 1.021471e+05 1.021471e+05 1.021471e+05 1.021464e+05 1.021804e+05 1.021804e+05 1.021804e+05 1.022261e+05 1.030965e+05 1.031443e+05 1.031105e+05 1.032120e+05 1.032120e+05 1.012456e+05 1.012456e+05 1.012456e+05 1.013629e+05 1.016596e+05 1.016596e+05 1.016596e+05 1.018423e+05 1.018423e+05 1.018172e+05 1.019004e+05 1.019004e+05 1.019004e+05 1.019886e+05 1.013599e+05 1.013599e+05 1.013599e+05 1.013399e+05 1.014243e+05 1.013847e+05 1.013847e+05 1.013847e+05 1.014859e+05 1.029613e+05 1.030087e+05 1.008515e+05 1.008515e+05 1.008515e+05 1.008636e+05 1.018379e+05 1.018379e+05 1.018379e+05 1.017791e+05 1.018706e+05 1.018706e+05 1.018706e+05 1.018752e+05 1.018752e+05 1.018072e+05 1.018072e+05 1.018072e+05 1.018337e+05 1.012813e+05 1.012813e+05 1.012813e+05 1.012977e+05 1.016915e+05 1.016915e+05 1.016915e+05 1.016555e+05 1.007294e+05 1.007294e+05 1.006059e+05 1.000445e+05 1.000445e+05 1.002114e+05 1.002114e+05 1.002114e+05 1.000155e+05 1.000155e+05 1.000155e+05 9.990543e+04 1.028410e+05 1.028410e+05 1.028410e+05 1.028568e+05 1.028568e+05 1.029022e+05 1.029022e+05 1.029022e+05 1.028182e+05 1.028182e+05 1.000474e+05 1.009594e+05 1.009594e+05 1.009984e+05 1.029729e+05 1.029729e+05 1.029729e+05 1.029630e+05 1.020542e+05 1.020542e+05 1.021153e+05 1.021153e+05 1.019926e+05 1.019926e+05 1.020586e+05 1.014822e+05 1.014822e+05 1.022910e+05 1.022910e+05 1.023501e+05 1.023501e+05 1.012772e+05 1.012772e+05 1.012772e+05 1.012953e+05 1.000997e+05 1.002082e+05 1.005352e+05 1.005352e+05 1.005352e+05 1.004444e+05 1.007846e+05 1.007846e+05 1.007846e+05 1.007561e+05 1.007561e+05 1.027849e+05 1.027849e+05 1.027849e+05 1.028215e+05 1.028215e+05 1.005736e+05 1.006519e+05 1.034606e+05 1.034606e+05 1.034606e+05 1.034898e+05 1.024129e+05 1.024129e+05 1.024129e+05 1.023656e+05 1.023656e+05 1.024531e+05 1.024167e+05 1.006218e+05 1.006218e+05 1.006218e+05 1.007828e+05 1.007828e+05 1.006848e+05 1.005309e+05 1.005309e+05 1.015038e+05 1.015038e+05 1.015038e+05 1.016297e+05 1.016297e+05 1.013614e+05 1.013614e+05 1.013614e+05 1.015328e+05 1.015328e+05 1.022982e+05 1.022982e+05 1.023370e+05 1.023370e+05 1.008750e+05 1.008750e+05 1.008942e+05 1.023166e+05 1.023166e+05 1.024046e+05 1.024046e+05 1.016718e+05 1.016718e+05 1.016718e+05 1.016759e+05 1.016244e+05 1.016244e+05 1.016244e+05 1.017177e+05 1.017177e+05 1.030336e+05 1.031040e+05 1.028556e+05 1.023811e+05 1.023811e+05 1.023811e+05 1.023749e+05 1.023749e+05 1.023708e+05 1.023708e+05 1.024037e+05 1.024010e+05 1.024010e+05 1.023451e+05 1.023590e+05 1.023229e+05 1.023229e+05 1.023229e+05 1.022725e+05 1.022725e+05 1.022725e+05 1.024495e+05 1.024495e+05 1.024495e+05 1.022476e+05 1.021995e+05 1.022086e+05 1.023460e+05 1.023460e+05 1.023460e+05 1.022768e+05 1.025644e+05 1.025644e+05 1.025644e+05 1.018629e+05 1.018629e+05 1.018629e+05 1.018508e+05 1.019797e+05 1.019797e+05 1.019797e+05 1.010379e+05 1.010379e+05 1.010379e+05 1.012894e+05 1.012894e+05 1.012894e+05 1.020039e+05 1.020039e+05 1.020858e+05 1.016644e+05 1.013371e+05 1.013371e+05 1.026685e+05 1.026685e+05 1.026685e+05 1.026747e+05 1.026747e+05 1.010726e+05 1.010726e+05 1.029876e+05 1.029944e+05 1.030087e+05 1.032569e+05 1.032569e+05 1.032569e+05 1.032537e+05 1.009912e+05 1.009912e+05 1.009912e+05 1.003219e+05 1.003970e+05 1.003892e+05 1.006422e+05 1.006422e+05 1.006422e+05 1.012798e+05 1.012798e+05 1.012798e+05 1.013626e+05 1.013249e+05 1.003747e+05 1.003747e+05 1.003747e+05 1.033953e+05 1.033953e+05 1.033953e+05 1.034367e+05 1.010102e+05 1.010102e+05 1.010102e+05 1.010458e+05 1.033451e+05 1.033451e+05 1.033451e+05 1.004159e+05 1.005439e+05 1.005439e+05 9.996839e+04 9.996839e+04 9.996839e+04 9.997226e+04 1.000643e+05 1.029343e+05 1.029343e+05 1.029234e+05 1.030070e+05 1.029267e+05 1.015565e+05 1.015565e+05 1.007914e+05 1.007914e+05 1.007914e+05 1.008369e+05 1.025447e+05 1.025447e+05 1.025447e+05 1.026199e+05 1.006398e+05 1.006967e+05 1.006967e+05 1.000997e+05 1.000997e+05 1.000997e+05 1.000945e+05 1.021190e+05 9.991756e+04 9.991756e+04 9.997156e+04 1.018133e+05 1.018133e+05 1.018133e+05 1.029419e+05 1.029419e+05 1.026015e+05 1.026015e+05 1.026015e+05 1.026512e+05 1.031732e+05 1.031732e+05 1.031732e+05 1.031943e+05 1.031943e+05 1.031450e+05 1.023109e+05 1.023109e+05 9.989800e+04 1.010596e+05 1.010596e+05 1.011124e+05 1.000221e+05 1.037044e+05 1.037126e+05 1.037044e+05 1.037044e+05 1.009481e+05 1.009481e+05 1.009481e+05 1.010160e+05 1.010160e+05 1.022374e+05 1.022374e+05 1.021283e+05 1.021283e+05 1.017182e+05 1.017182e+05 1.017182e+05 1.017715e+05 1.017715e+05 1.006585e+05 1.006585e+05 1.006585e+05 1.007837e+05 1.007837e+05 1.034396e+05 1.034396e+05 1.034396e+05 1.034120e+05 1.034120e+05 1.013139e+05 1.013139e+05 1.013139e+05 1.010491e+05 1.028756e+05 1.028756e+05 1.028756e+05 1.028281e+05 1.028281e+05 1.022988e+05 1.022988e+05 1.022988e+05 1.022222e+05 1.022222e+05 1.016545e+05 1.016545e+05 1.016545e+05 1.016549e+05 1.016549e+05 1.033315e+05 1.033315e+05 1.033315e+05 1.017247e+05 1.017247e+05 1.017247e+05 1.016123e+05 1.016123e+05 1.017861e+05 1.017907e+05 1.024143e+05 1.024143e+05 1.024143e+05 1.024626e+05 1.022582e+05 1.022582e+05 1.021986e+05 1.023404e+05 1.023404e+05 1.022882e+05 1.022882e+05 1.023511e+05 1.023962e+05 1.024771e+05 1.025132e+05 1.024771e+05 1.024771e+05 1.023497e+05 1.023497e+05 1.023915e+05 1.025236e+05 1.025906e+05 1.034795e+05 1.034795e+05 1.034795e+05 1.034278e+05 1.034581e+05 1.010830e+05 1.010830e+05 1.010830e+05 1.011244e+05 1.020969e+05 1.015001e+05 1.029963e+05 1.029963e+05 1.029963e+05 1.030110e+05 1.012135e+05 1.011436e+05 1.011428e+05 1.001840e+05 1.001840e+05 1.002261e+05 1.024774e+05 1.022700e+05 1.022700e+05 1.022760e+05 1.022406e+05 1.009949e+05 1.010171e+05 1.011158e+05 1.001449e+05 1.001449e+05 1.001449e+05 1.001526e+05 1.018605e+05 1.018605e+05 1.018605e+05 1.018331e+05 9.991375e+04 1.016768e+05 1.017494e+05 1.017494e+05 1.004422e+05 1.004422e+05 1.004422e+05 1.000933e+05 1.024889e+05 1.024889e+05 1.000451e+05 1.000451e+05 1.000451e+05 1.006915e+05 1.024165e+05 1.024165e+05 1.001308e+05 1.002414e+05 1.002414e+05 1.002414e+05 1.002545e+05 1.007926e+05 1.027435e+05 1.027435e+05 1.026764e+05 1.021257e+05 9.992133e+04 9.992133e+04 1.015120e+05 1.015120e+05 1.015120e+05 1.015216e+05 1.020275e+05 1.021529e+05 1.021529e+05 1.005126e+05 1.019684e+05 1.019684e+05 1.019901e+05 1.023941e+05 1.023941e+05 1.021381e+05 1.012419e+05 1.004092e+05 1.004954e+05 1.004954e+05 1.034715e+05 1.034715e+05 1.005893e+05 1.027349e+05 1.027349e+05 1.003623e+05 1.003623e+05 1.003623e+05 1.003372e+05 1.011632e+05 1.011632e+05 1.007457e+05 1.007457e+05 1.025991e+05 1.027504e+05 1.002553e+05 1.001605e+05 1.015805e+05 1.016424e+05 1.016424e+05 9.989075e+04 9.995952e+04 9.995952e+04 1.027017e+05 1.027017e+05 1.026903e+05 1.026903e+05 1.017371e+05 9.997648e+04 1.035134e+05 1.035134e+05 1.035661e+05 1.035950e+05 1.035950e+05 1.019420e+05 1.019344e+05 1.008243e+05 1.008243e+05 1.008243e+05 1.030106e+05 1.030106e+05 1.030106e+05 1.030009e+05 1.004846e+05 1.004846e+05 1.008845e+05 1.026152e+05 1.026152e+05 1.002189e+05 1.009371e+05 1.000020e+05 1.000020e+05 1.000020e+05 1.019800e+05 1.019800e+05 1.018436e+05 1.018260e+05 1.018260e+05 1.000667e+05 1.001040e+05 9.996569e+04 9.998669e+04 1.028919e+05 1.033355e+05 1.033355e+05 1.012872e+05 1.012872e+05 1.012872e+05 1.013269e+05 1.031109e+05 1.008161e+05 1.003052e+05 1.003052e+05 1.002664e+05 1.005626e+05 1.005626e+05 1.024270e+05 1.024270e+05 1.024619e+05 1.005448e+05 1.006390e+05 1.006390e+05 1.000134e+05 1.034048e+05 1.034048e+05 1.033784e+05 1.033784e+05 1.000052e+05 1.000052e+05 1.000052e+05 1.014374e+05 1.014374e+05 1.014374e+05 9.998641e+04 9.998641e+04 1.023153e+05 1.033429e+05 1.032791e+05 1.032242e+05 1.020180e+05 1.033756e+05 1.021820e+05 1.001271e+05 1.002258e+05 1.013624e+05 1.013624e+05 1.013401e+05 1.009816e+05 1.011558e+05 1.012346e+05 1.000089e+05 1.000089e+05 1.037098e+05 1.037063e+05 1.036437e+05 1.036437e+05 1.036437e+05 1.036048e+05 1.024772e+05 1.024201e+05 1.024964e+05 1.025808e+05 1.001398e+05 1.001398e+05 1.001237e+05 1.021250e+05 1.019706e+05 1.016337e+05 1.012392e+05 1.011744e+05 1.011744e+05 1.011744e+05 1.000666e+05 1.004567e+05 1.004567e+05 1.004567e+05 1.036942e+05 1.025241e+05 1.033825e+05 1.033574e+05 1.006647e+05 1.006626e+05 1.035712e+05 1.035941e+05 1.026347e+05 1.026564e+05 1.026564e+05 1.004228e+05 1.008498e+05 1.021297e+05 1.024123e+05 1.023904e+05 1.023896e+05 1.023896e+05 1.017969e+05 1.017969e+05 1.018712e+05 1.018712e+05 1.005197e+05 1.014391e+05 9.998836e+04 1.030460e+05 1.027778e+05 1.026657e+05 1.000891e+05 1.000132e+05 1.001579e+05 1.001579e+05 1.026057e+05 1.026057e+05 1.026413e+05 1.026413e+05 1.001613e+05 1.001902e+05 1.008968e+05 1.008968e+05 1.007843e+05 1.003244e+05 1.003244e+05 1.004270e+05 1.004270e+05 1.006900e+05 1.006900e+05 1.029946e+05 1.034199e+05 1.034199e+05 1.022055e+05 1.022055e+05 1.022055e+05 1.016718e+05 1.019956e+05 1.019956e+05 1.013672e+05 1.013672e+05 1.024622e+05 1.023877e+05 1.018511e+05 1.030120e+05 1.029378e+05 1.026943e+05 1.026943e+05 1.001181e+05 1.001181e+05 1.001155e+05 1.025945e+05 1.025945e+05 1.009358e+05 1.009358e+05 1.028234e+05 1.028234e+05 1.002208e+05 1.035518e+05 1.009549e+05 1.009549e+05 1.009354e+05 1.000950e+05 1.001708e+05 1.022383e+05 1.018289e+05 1.005406e+05 1.033014e+05 1.029168e+05 1.005178e+05 1.005178e+05 1.005178e+05 1.000893e+05 1.000893e+05 1.000893e+05 1.001226e+05 1.002636e+05 1.002636e+05 1.002636e+05 1.001936e+05 1.035713e+05 1.035669e+05 1.013270e+05 1.014417e+05 1.014417e+05 1.002896e+05 1.002896e+05 1.002896e+05 1.017208e+05 1.018873e+05 1.032020e+05 1.037110e+05 1.037110e+05 1.036660e+05 1.001785e+05 1.011032e+05 1.011032e+05 1.011882e+05 1.006827e+05 1.006827e+05 1.035330e+05 1.027331e+05 1.006077e+05 1.005904e+05 1.012593e+05 1.002057e+05 1.003049e+05 1.029385e+05 1.002482e+05 1.002482e+05 1.002482e+05 1.010772e+05 1.010772e+05 1.018681e+05 1.019422e+05 1.019422e+05 1.028321e+05 1.027425e+05 1.017371e+05 1.016512e+05 1.029688e+05 1.029688e+05 1.029688e+05 1.029650e+05 1.016459e+05 1.016459e+05 1.015345e+05 1.027800e+05 1.027800e+05 1.005274e+05 1.005274e+05 1.005274e+05 1.003335e+05 1.007561e+05 1.031386e+05 1.031386e+05 1.031386e+05 1.030721e+05 1.031549e+05 1.013490e+05 1.013490e+05 1.014533e+05 1.014533e+05 1.017800e+05 1.020586e+05 1.020586e+05 1.001719e+05 1.002053e+05 1.018048e+05 1.018048e+05 1.014390e+05 1.014807e+05 1.025927e+05 1.037126e+05 1.036968e+05 1.007789e+05 1.008309e+05 1.034957e+05 1.004108e+05 1.004108e+05 1.005475e+05 1.005475e+05 1.009295e+05 1.001594e+05 1.001414e+05 1.013637e+05 1.005917e+05 1.015840e+05 1.016114e+05 1.022173e+05 1.022173e+05 1.036364e+05 1.036364e+05 1.036364e+05 1.036607e+05 1.026894e+05 1.026894e+05 1.027520e+05 1.003130e+05 1.004241e+05 1.011315e+05 1.029860e+05 1.028909e+05 1.028909e+05 1.028909e+05 1.029232e+05 1.004191e+05 1.037039e+05 1.028231e+05 1.027545e+05 1.027545e+05 1.021676e+05 1.021676e+05 1.021676e+05 1.022152e+05 1.035979e+05 1.035979e+05 1.025451e+05 1.025451e+05 1.024805e+05 1.015252e+05 1.009604e+05 1.032702e+05 1.006317e+05 1.007188e+05 1.036343e+05 1.036665e+05 1.003644e+05 1.011257e+05 1.011257e+05 1.011257e+05 1.011944e+05 1.021099e+05 1.002131e+05 1.003400e+05 1.026182e+05 1.025959e+05 1.002538e+05 1.003311e+05 1.011446e+05 1.011446e+05 1.012737e+05 1.009807e+05 1.009807e+05 1.009945e+05 1.011065e+05 1.011065e+05 1.004392e+05 1.019723e+05 1.019723e+05 1.019760e+05 1.025613e+05 1.032387e+05 1.032387e+05 1.006205e+05 1.007721e+05 1.007721e+05 1.005794e+05 1.023063e+05 1.028729e+05 1.029354e+05 1.024707e+05 1.024707e+05 1.001779e+05 1.007930e+05 1.005379e+05 1.006482e+05 1.004952e+05 1.026054e+05 1.026054e+05 1.014029e+05 1.014029e+05 1.014029e+05 1.004793e+05 1.005734e+05 1.018717e+05 1.019417e+05 1.019417e+05 1.002713e+05 1.003834e+05 1.003834e+05 1.007782e+05 1.003255e+05 1.004265e+05 1.028670e+05 1.033130e+05 1.033130e+05 1.033130e+05 1.032363e+05 1.024693e+05 1.015609e+05 1.005620e+05 1.005656e+05 1.012753e+05 1.012753e+05 1.012753e+05 1.004628e+05 1.004628e+05 1.004628e+05 1.003231e+05 1.003307e+05 1.022283e+05 1.018653e+05 1.019668e+05 1.004435e+05 1.004435e+05 1.019786e+05 1.020030e+05 1.020798e+05 1.020798e+05 1.005691e+05 1.011562e+05 1.011562e+05 1.012376e+05 1.015698e+05 1.015698e+05 1.014735e+05 1.008279e+05 1.008279e+05 1.004788e+05 1.016978e+05 1.016978e+05 1.017522e+05 1.017522e+05 1.027681e+05 1.027681e+05 1.027681e+05 1.028471e+05 1.029133e+05 1.029133e+05 1.029461e+05 1.029461e+05 1.029461e+05 1.029559e+05 1.026569e+05 1.003834e+05 1.030267e+05 1.030267e+05 1.029904e+05 1.027219e+05 1.027219e+05 1.027219e+05 1.011537e+05 1.011537e+05 1.010340e+05 1.008079e+05 1.008079e+05 1.009053e+05 1.025209e+05 1.025063e+05 1.025063e+05 1.036735e+05 1.036608e+05 1.009807e+05 1.009807e+05 1.009807e+05 1.035167e+05 1.020857e+05 1.020857e+05 1.019551e+05 1.019551e+05 1.026727e+05 1.026727e+05 1.027013e+05 1.027013e+05 1.028655e+05 1.028655e+05 1.028767e+05 1.006979e+05 1.007269e+05 1.007785e+05 1.024103e+05 1.024103e+05 1.024103e+05 1.005808e+05 1.013208e+05 1.021543e+05 1.009351e+05 1.035084e+05 1.011496e+05 1.016351e+05 1.016351e+05 1.036408e+05 1.036458e+05 1.036458e+05 1.007649e+05 1.008130e+05 1.034365e+05 1.034365e+05 1.033881e+05 1.021448e+05 1.021448e+05 1.004588e+05 1.005300e+05 1.022870e+05 1.005633e+05 1.035500e+05 1.035001e+05 1.035001e+05 1.009148e+05 1.006082e+05 1.006489e+05 1.031978e+05 1.031603e+05 1.026186e+05 1.026186e+05 1.013075e+05 1.013075e+05 1.003941e+05 1.028093e+05 1.028430e+05 1.028430e+05 1.028106e+05 1.011173e+05 1.011271e+05 1.008649e+05 1.008649e+05 1.008649e+05 1.009041e+05 1.009041e+05 1.012338e+05 1.025583e+05 1.030876e+05 1.020143e+05 1.020143e+05 1.007239e+05 1.007239e+05 1.008068e+05 1.007576e+05 1.007576e+05 1.035281e+05 1.035281e+05 1.035281e+05 1.035281e+05 1.035281e+05 1.009952e+05 1.009952e+05 1.011056e+05 1.014187e+05 1.014198e+05 1.014198e+05 1.014198e+05 1.017162e+05 1.015078e+05 1.016359e+05 1.016359e+05 1.014079e+05 1.014658e+05 1.029944e+05 1.027111e+05 1.030437e+05 1.009837e+05 1.009171e+05 1.036608e+05 1.021969e+05 1.021969e+05 1.021881e+05 1.021881e+05 1.022794e+05 1.023279e+05 1.031874e+05 1.024702e+05 1.018509e+05 1.018509e+05 1.019439e+05 1.029437e+05 1.024810e+05 1.029880e+05 1.005144e+05 1.016489e+05 1.032886e+05 1.028625e+05 1.028625e+05 1.029683e+05 1.029683e+05 1.010358e+05 1.006972e+05 1.006972e+05 1.006972e+05 1.010785e+05 1.024895e+05 1.005239e+05 1.023352e+05 1.024537e+05 1.012522e+05 1.027840e+05 1.020888e+05 1.021906e+05 1.025854e+05 1.025854e+05 1.025854e+05 1.016626e+05 1.011316e+05 1.028058e+05 1.023261e+05 1.023261e+05 1.022472e+05 1.008900e+05 1.008681e+05 1.008681e+05 1.028512e+05 1.012098e+05 1.012992e+05 1.027609e+05 1.010495e+05 1.010495e+05 1.010368e+05 1.029916e+05 1.026223e+05 1.026223e+05 1.026463e+05 1.008806e+05 1.008806e+05 1.008806e+05 1.008778e+05 1.010282e+05 1.010222e+05 1.012208e+05 1.013847e+05 1.013847e+05 1.014167e+05 1.017820e+05 1.019819e+05 1.019819e+05 1.024556e+05 1.014430e+05 1.014430e+05 1.014430e+05 1.015625e+05 1.035083e+05 1.010350e+05 1.031570e+05 1.031430e+05 1.008769e+05 1.017213e+05 1.018003e+05 1.031344e+05 1.010004e+05 1.011000e+05 1.029613e+05 1.012701e+05 1.025186e+05 1.025186e+05 1.025186e+05 1.036500e+05 1.036233e+05 1.024732e+05 1.031106e+05 1.036500e+05 1.024769e+05 1.027834e+05 1.019849e+05 1.015327e+05 1.015767e+05 1.010817e+05 1.025224e+05 1.025224e+05 1.025224e+05 1.015837e+05 1.029908e+05 1.029908e+05 1.035324e+05 1.035324e+05 1.013006e+05 1.026249e+05 1.030141e+05 1.011923e+05 1.011923e+05 1.011923e+05 1.010427e+05 1.028382e+05 1.028382e+05 1.011629e+05 1.011311e+05 1.016793e+05 1.023224e+05 1.027089e+05 1.027089e+05 1.027089e+05 1.027128e+05 1.027128e+05 1.027128e+05 1.035910e+05 1.012197e+05 1.033709e+05 1.033709e+05 1.029222e+05 1.029222e+05 1.029222e+05 1.028999e+05 1.013236e+05 1.013236e+05 1.013236e+05 1.023447e+05 1.023447e+05 1.023447e+05 1.025886e+05 1.009973e+05 1.010828e+05 1.013023e+05 1.013023e+05 1.013023e+05 1.011550e+05 1.012835e+05 1.012835e+05 1.020368e+05 1.019224e+05 1.034165e+05 1.012703e+05 1.013443e+05 1.027529e+05 1.021125e+05 1.015507e+05 1.017487e+05 1.025717e+05 1.025717e+05 1.026844e+05 1.029571e+05 1.013359e+05 1.016790e+05 1.018097e+05 1.013812e+05 1.015762e+05 1.016076e+05 1.016076e+05 1.020303e+05 1.022043e+05 1.023396e+05 1.019732e+05 1.014525e+05 1.033060e+05 1.023824e+05 1.023824e+05 1.028006e+05 1.028006e+05 1.026313e+05 1.026313e+05 1.026313e+05 1.024942e+05 1.024942e+05 1.016995e+05 1.027393e+05 1.027786e+05 1.027786e+05 1.021266e+05 1.014829e+05 1.015539e+05 1.019026e+05 1.019026e+05 1.019511e+05 1.025057e+05 1.025913e+05 1.025913e+05 1.022355e+05 1.021540e+05 1.027529e+05 1.027529e+05 1.019680e+05 1.018403e+05 1.018403e+05 1.018403e+05 1.013840e+05 1.020578e+05 1.022154e+05 1.015072e+05 1.015072e+05 1.015072e+05 1.014416e+05 1.015245e+05 1.017073e+05 1.014692e+05 1.020748e+05 1.021375e+05 1.021375e+05 1.021375e+05 1.019944e+05 1.018305e+05 1.027299e+05 1.027299e+05 1.027299e+05 1.021089e+05 1.023213e+05 1.023753e+05 1.023753e+05 1.014688e+05 1.026785e+05 1.026785e+05 1.026785e+05 1.025140e+05 1.025140e+05 1.030130e+05 1.029436e+05 1.029436e+05 1.023954e+05 1.020660e+05 1.020660e+05 1.020786e+05 1.025099e+05 1.025099e+05 1.025099e+05 1.023411e+05 1.023411e+05 1.023411e+05 1.016581e+05 1.016581e+05 1.017476e+05 1.013813e+05 1.026149e+05 1.026149e+05 1.018126e+05 1.018531e+05 1.018531e+05 1.018437e+05 1.018437e+05 1.022660e+05 1.018557e+05 1.019180e+05 1.019180e+05 1.020510e+05 1.020510e+05 1.017142e+05 1.017142e+05 1.018693e+05 1.019202e+05 1.019202e+05 1.018876e+05 1.018876e+05 1.018589e+05 1.019661e+05 1.027123e+05 1.027447e+05 1.027447e+05 1.020364e+05 1.018675e+05 1.017816e+05 1.027420e+05 1.027420e+05 1.021054e+05 1.028556e+05 1.028556e+05 1.025838e+05 1.025838e+05 1.021913e+05 1.025435e+05 1.025435e+05 1.025435e+05 1.025254e+05 1.025254e+05 1.024735e+05 1.020210e+05 1.020210e+05 1.024213e+05 1.024213e+05 1.022719e+05 1.019358e+05 1.017413e+05 1.023789e+05 1.023269e+05 1.026858e+05 1.026858e+05 1.021911e+05 1.021911e+05 1.019486e+05 1.019486e+05 1.024798e+05 1.020350e+05 1.020350e+05 1.019241e+05 1.019537e+05 1.019537e+05 1.022843e+05 1.022843e+05 1.022069e+05 1.021310e+05 1.021310e+05 1.019832e+05 1.019832e+05 1.020321e+05 1.020321e+05 1.020052e+05 1.020315e+05 1.020315e+05 1.021299e+05 1.021881e+05 1.021518e+05 1.021276e+05 1.021915e+05 1.025808e+05 1.026114e+05 1.024015e+05 1.024015e+05 1.026360e+05 1.022892e+05 1.022892e+05 1.022607e+05 1.020711e+05 1.027007e+05 1.027546e+05 1.027546e+05 1.022230e+05 1.022230e+05 1.024077e+05 1.026694e+05 1.022815e+05 1.022815e+05 1.024629e+05 1.024629e+05 1.023015e+05 1.022965e+05 1.022965e+05 1.022965e+05 1.023534e+05 1.023534e+05 1.024965e+05 1.023931e+05 1.023106e+05 1.023106e+05 1.024093e+05 1.024093e+05 1.025088e+05 1.022984e+05 1.027002e+05 1.025432e+05 1.023541e+05 1.022750e+05 1.024813e+05 1.023904e+05 1.024964e+05 1.023790e+05 1.023625e+05 1.023156e+05 1.024477e+05 1.024313e+05 1.025102e+05 1.025132e+05 1.024252e+05 1.024252e+05 1.023822e+05 1.023864e+05 1.024410e+05 1.024293e+05 1.024576e+05 1.024507e+05 1.024507e+05 1.024763e+05 1.024763e+05 1.023343e+05 1.023343e+05 1.024054e+05 1.024551e+05 1.024551e+05 1.024551e+05 1.024129e+05 1.024129e+05 1.024073e+05 1.024073e+05 1.024073e+05 1.024305e+05 1.024305e+05 1.025577e+05 1.025619e+05 1.024001e+05 1.025577e+05 1.025577e+05 1.025270e+05 1.024236e+05 1.024389e+05 1.023601e+05 1.024185e+05 1.024301e+05 1.024286e+05 1.024203e+05 1.023401e+05 1.023401e+05 1.023840e+05 1.026298e+05 1.024001e+05 1.027558e+05 1.025221e+05 1.024481e+05 1.027123e+05 1.027123e+05 1.026484e+05 1.026001e+05 1.026484e+05 1.024394e+05 1.025469e+05 1.023383e+05 1.023611e+05 1.024126e+05 1.024126e+05 1.023446e+05 1.037098e+05 1.037098e+05 1.037039e+05 1.036710e+05 1.037023e+05 1.036341e+05 1.036024e+05 1.035754e+05 1.035927e+05 1.034953e+05 1.034923e+05 1.034898e+05 1.034322e+05 1.033878e+05 1.033708e+05 1.033235e+05 1.032515e+05 1.031824e+05 1.031737e+05 1.031646e+05 1.030460e+05 1.030054e+05 1.029518e+05 1.028874e+05 1.028474e+05 1.027994e+05 1.027785e+05 1.027028e+05 1.026335e+05 1.025868e+05 1.025270e+05 1.024781e+05 1.024339e+05 1.023652e+05 1.023267e+05 1.022239e+05 1.021460e+05 1.021033e+05 1.020468e+05 1.019963e+05 1.019420e+05 1.018908e+05 1.018436e+05 1.017611e+05 1.017016e+05 1.016463e+05 1.015926e+05 1.015344e+05 1.014865e+05 1.014338e+05 1.013541e+05 1.013057e+05 1.012584e+05 1.011889e+05 1.011828e+05 1.010911e+05 1.009999e+05 1.009610e+05 1.009039e+05 1.008584e+05 1.008154e+05 1.007371e+05 1.006708e+05 1.006398e+05 1.006058e+05 1.005448e+05 1.004878e+05 1.004643e+05 1.004273e+05 1.003661e+05 1.002963e+05 1.002637e+05 1.002455e+05 1.002020e+05 1.001549e+05 1.001334e+05 1.000964e+05 1.000860e+05 1.000667e+05 1.000101e+05 9.999401e+04 9.996569e+04 9.994463e+04 9.994022e+04 9.989581e+04 9.989288e+04 9.989106e+04 9.989075e+04 9.985217e+04 9.986289e+04 9.985892e+04 9.984901e+04 9.987873e+04 9.984573e+04 9.987241e+04 9.987994e+04 9.988749e+04 9.987888e+04 9.987962e+04 9.988733e+04 9.989407e+04 9.992248e+04 9.994346e+04 9.994045e+04 9.993275e+04 9.996361e+04 9.997738e+04 9.997319e+04 1.000565e+05 1.000455e+05 1.000981e+05 1.001288e+05 1.001470e+05 1.001978e+05 1.002024e+05 1.002263e+05 1.002778e+05 1.002798e+05 1.003573e+05 1.004092e+05 1.004232e+05 1.004537e+05 1.005124e+05 1.005302e+05 1.006001e+05 1.006540e+05 1.006685e+05 1.006984e+05 1.007912e+05 1.008010e+05 1.008479e+05 1.009297e+05 1.009251e+05 1.010460e+05 1.010752e+05 1.011648e+05 1.011791e+05 1.012287e+05 1.013017e+05 1.013081e+05 1.013728e+05 1.014495e+05 1.014684e+05 1.015090e+05 1.015805e+05 1.015811e+05 1.016768e+05 1.016968e+05 1.017897e+05 1.018070e+05 1.018534e+05 1.019233e+05 1.019233e+05 1.019257e+05 1.019836e+05 1.020602e+05 1.021257e+05 1.021948e+05 1.021794e+05 1.022199e+05 1.023031e+05 1.023945e+05 1.023995e+05 1.024044e+05 1.024480e+05 1.025165e+05 1.025729e+05 1.025369e+05 1.026091e+05 1.026160e+05 1.026911e+05 1.027077e+05 1.027465e+05 1.027971e+05 1.028057e+05 1.028303e+05 1.028672e+05 1.028928e+05 1.029146e+05 1.029620e+05 1.029556e+05 1.023645e+05 1.023645e+05 1.023645e+05 1.023298e+05 1.023298e+05 1.023298e+05 1.024172e+05 1.023607e+05 1.023497e+05 1.023631e+05 1.024796e+05 1.024796e+05 1.024796e+05 1.024001e+05 1.024362e+05 1.024362e+05 1.024362e+05 1.023649e+05 1.024244e+05 1.030831e+05 1.030831e+05 1.030831e+05 1.031394e+05 1.029300e+05 1.029300e+05 1.029300e+05 1.028417e+05 1.007458e+05 1.007458e+05 1.007458e+05 1.007276e+05 1.007645e+05 1.008433e+05 1.021135e+05 1.021135e+05 1.021135e+05 1.020629e+05 1.020629e+05 1.021409e+05 1.021409e+05 1.021409e+05 1.021479e+05 1.023258e+05 1.023258e+05 1.023258e+05 1.022637e+05 1.022637e+05 1.036024e+05 1.036024e+05 1.036024e+05 1.002910e+05 1.002910e+05 1.002910e+05 1.003460e+05 1.002810e+05 1.002810e+05 1.002810e+05 1.014391e+05 1.014391e+05 1.014391e+05 1.013829e+05 1.008813e+05 1.008813e+05 1.009912e+05 1.009912e+05 1.002878e+05 1.002878e+05 1.003349e+05 1.015994e+05 1.015994e+05 1.015994e+05 1.016315e+05 1.016315e+05 1.025135e+05 1.025135e+05 1.025135e+05 1.024898e+05 1.024898e+05 1.024202e+05 1.024202e+05 1.024202e+05 1.023470e+05 1.023470e+05 1.030414e+05 1.030414e+05 1.006088e+05 1.006088e+05 1.006088e+05 1.006982e+05 1.000122e+05 1.000122e+05 1.000122e+05 9.999434e+04 1.000851e+05 1.005184e+05 1.005184e+05 1.005184e+05 1.003135e+05 1.003135e+05 1.003258e+05 1.022239e+05 1.022565e+05 1.022565e+05 1.027971e+05 1.028039e+05 1.028039e+05 9.992819e+04 1.006001e+05 1.006481e+05 1.024420e+05 1.024028e+05 1.024028e+05 1.024028e+05 1.023803e+05 1.024192e+05 1.023174e+05 1.023174e+05 1.023174e+05 1.023251e+05 1.023251e+05 1.021471e+05 1.021471e+05 1.021471e+05 1.021464e+05 1.021804e+05 1.021804e+05 1.021804e+05 1.022261e+05 1.030965e+05 1.031443e+05 1.031105e+05 1.032120e+05 1.032120e+05 1.012456e+05 1.012456e+05 1.012456e+05 1.013629e+05 1.016596e+05 1.016596e+05 1.016596e+05 1.018423e+05 1.018423e+05 1.018172e+05 1.019004e+05 1.019004e+05 1.019004e+05 1.019886e+05 1.013599e+05 1.013599e+05 1.013599e+05 1.013399e+05 1.014243e+05 1.013847e+05 1.013847e+05 1.013847e+05 1.014859e+05 1.029613e+05 1.030087e+05 1.008515e+05 1.008515e+05 1.008515e+05 1.008636e+05 1.018379e+05 1.018379e+05 1.018379e+05 1.017791e+05 1.018706e+05 1.018706e+05 1.018706e+05 1.018752e+05 1.018752e+05 1.018072e+05 1.018072e+05 1.018072e+05 1.018337e+05 1.012813e+05 1.012813e+05 1.012813e+05 1.012977e+05 1.016915e+05 1.016915e+05 1.016915e+05 1.016555e+05 1.007294e+05 1.007294e+05 1.006059e+05 1.000445e+05 1.000445e+05 1.002114e+05 1.002114e+05 1.002114e+05 1.000155e+05 1.000155e+05 1.000155e+05 9.990543e+04 1.028410e+05 1.028410e+05 1.028410e+05 1.028568e+05 1.028568e+05 1.029022e+05 1.029022e+05 1.029022e+05 1.028182e+05 1.028182e+05 1.000474e+05 1.009594e+05 1.009594e+05 1.009984e+05 1.029729e+05 1.029729e+05 1.029729e+05 1.029630e+05 1.020542e+05 1.020542e+05 1.021153e+05 1.021153e+05 1.019926e+05 1.019926e+05 1.020586e+05 1.014822e+05 1.014822e+05 1.022910e+05 1.022910e+05 1.023501e+05 1.023501e+05 1.012772e+05 1.012772e+05 1.012772e+05 1.012953e+05 1.000997e+05 1.002082e+05 1.005352e+05 1.005352e+05 1.005352e+05 1.004444e+05 1.007846e+05 1.007846e+05 1.007846e+05 1.007561e+05 1.007561e+05 1.027849e+05 1.027849e+05 1.027849e+05 1.028215e+05 1.028215e+05 1.005736e+05 1.006519e+05 1.034606e+05 1.034606e+05 1.034606e+05 1.034898e+05 1.024129e+05 1.024129e+05 1.024129e+05 1.023656e+05 1.023656e+05 1.024531e+05 1.024167e+05 1.006218e+05 1.006218e+05 1.006218e+05 1.007828e+05 1.007828e+05 1.006848e+05 1.005309e+05 1.005309e+05 1.015038e+05 1.015038e+05 1.015038e+05 1.016297e+05 1.016297e+05 1.013614e+05 1.013614e+05 1.013614e+05 1.015328e+05 1.015328e+05 1.022982e+05 1.022982e+05 1.