<?xml version="1.0"?>
 <VTKFile type="UnstructuredGrid" version="1.0" byte_order="LittleEndian" header_type="UInt64">
  <UnstructuredGrid>
    <FieldData>
     <DataArray type="Float64" Name="TimeValue" NumberOfTuples="1" format="ascii">
4e-05
     </DataArray>
    </FieldData>
   <Piece NumberOfPoints="3662" NumberOfCells="3444">
    <PointData>
     <DataArray type="Float64" Name="pointP" format="ascii">
1.037894e+05 1.037977e+05 1.037832e+05 1.037852e+05 1.037918e+05 1.037632e+05 1.037645e+05 1.037542e+05 1.037392e+05 1.037172e+05 1.036896e+05 1.036703e+05 1.036481e+05 1.036140e+05 1.036082e+05 1.036178e+05 1.035687e+05 1.035398e+05 1.035300e+05 1.034972e+05 1.034863e+05 1.034458e+05 1.034979e+05 1.033784e+05 1.033610e+05 1.033095e+05 1.032630e+05 1.032116e+05 1.031708e+05 1.031366e+05 1.030785e+05 1.030572e+05 1.029766e+05 1.029280e+05 1.028857e+05 1.028029e+05 1.027579e+05 1.026826e+05 1.026191e+05 1.025722e+05 1.025522e+05 1.025003e+05 1.024233e+05 1.023342e+05 1.023151e+05 1.022565e+05 1.022032e+05 1.021810e+05 1.021217e+05 1.020641e+05 1.020092e+05 1.019146e+05 1.018391e+05 1.017403e+05 1.017021e+05 1.016297e+05 1.015451e+05 1.014971e+05 1.014249e+05 1.013773e+05 1.013443e+05 1.012764e+05 1.012178e+05 1.011663e+05 1.011772e+05 1.010647e+05 1.009687e+05 1.009415e+05 1.008947e+05 1.008166e+05 1.007283e+05 1.007162e+05 1.006417e+05 1.005894e+05 1.005227e+05 1.005083e+05 1.004268e+05 1.004077e+05 1.003591e+05 1.003253e+05 1.002861e+05 1.002365e+05 1.001759e+05 1.001420e+05 1.001182e+05 1.000841e+05 1.000551e+05 1.000331e+05 1.000223e+05 9.999737e+04 9.994645e+04 9.993206e+04 9.988556e+04 9.988523e+04 9.987699e+04 9.984579e+04 9.987315e+04 9.986879e+04 9.985840e+04 9.984841e+04 9.986223e+04 9.986182e+04 9.984574e+04 9.984139e+04 9.982680e+04 9.985017e+04 9.984101e+04 9.981687e+04 9.986619e+04 9.984958e+04 9.988439e+04 9.991024e+04 9.990416e+04 9.992963e+04 9.994940e+04 9.994635e+04 9.999534e+04 1.000142e+05 1.000412e+05 1.000591e+05 1.000948e+05 1.001259e+05 1.001766e+05 1.001766e+05 1.023251e+05 1.023689e+05 1.023861e+05 1.023906e+05 1.023962e+05 1.024058e+05 1.024120e+05 1.024120e+05 1.024139e+05 1.024154e+05 1.024231e+05 1.024231e+05 1.024324e+05 1.024324e+05 1.024563e+05 1.024660e+05 1.024862e+05 1.024751e+05 1.025009e+05 1.025516e+05 1.025516e+05 1.026116e+05 1.026116e+05 1.026456e+05 1.026309e+05 1.027441e+05 1.027447e+05 1.027395e+05 1.028459e+05 1.028821e+05 1.028830e+05 1.029156e+05 1.030126e+05 1.030615e+05 1.030837e+05 1.031951e+05 1.032393e+05 1.032393e+05 1.032263e+05 1.033459e+05 1.033459e+05 1.035216e+05 1.034245e+05 1.034245e+05 1.035232e+05 1.036118e+05 1.036118e+05 1.036293e+05 1.036586e+05 1.036772e+05 1.036772e+05 1.037494e+05 1.037332e+05 1.037535e+05 1.038013e+05 1.037489e+05 1.023139e+05 1.025982e+05 1.025982e+05 1.025982e+05 1.026506e+05 1.023510e+05 1.023510e+05 1.023510e+05 1.023986e+05 1.023986e+05 1.026447e+05 1.026447e+05 1.026447e+05 1.026660e+05 1.026021e+05 1.023274e+05 1.024654e+05 1.024654e+05 1.024998e+05 1.025820e+05 1.025820e+05 1.025820e+05 1.025843e+05 1.025602e+05 1.015338e+05 1.015338e+05 1.015338e+05 1.014904e+05 1.023540e+05 1.023540e+05 1.023540e+05 1.023644e+05 1.023727e+05 1.023727e+05 1.025751e+05 1.025751e+05 1.025222e+05 1.024626e+05 1.023139e+05 1.023139e+05 1.024005e+05 1.024005e+05 1.024005e+05 1.023895e+05 1.023911e+05 1.023911e+05 1.023765e+05 1.023957e+05 1.023957e+05 1.023957e+05 1.024310e+05 1.024566e+05 1.024434e+05 1.024739e+05 1.023285e+05 1.023285e+05 1.023285e+05 1.023023e+05 1.023252e+05 1.022856e+05 1.021807e+05 1.022856e+05 1.029070e+05 1.029070e+05 1.029070e+05 1.030245e+05 1.030245e+05 1.030245e+05 1.029481e+05 1.011471e+05 1.011515e+05 1.011471e+05 1.011471e+05 1.017103e+05 1.017103e+05 1.017103e+05 1.016584e+05 1.023754e+05 1.023754e+05 1.023754e+05 1.024044e+05 1.028984e+05 1.028984e+05 1.028984e+05 1.028578e+05 1.028578e+05 1.004791e+05 1.004791e+05 1.004791e+05 1.004948e+05 1.003888e+05 1.003888e+05 1.003888e+05 1.004219e+05 1.004219e+05 1.036068e+05 1.036068e+05 1.036068e+05 1.036227e+05 1.005441e+05 1.005441e+05 1.005441e+05 1.006420e+05 1.006420e+05 1.005220e+05 1.006374e+05 1.026208e+05 1.026208e+05 1.026208e+05 1.026360e+05 1.029751e+05 1.029751e+05 1.029751e+05 1.030434e+05 1.030434e+05 1.004992e+05 1.004992e+05 1.004992e+05 1.005250e+05 1.027420e+05 1.027420e+05 1.027420e+05 1.027920e+05 9.992963e+04 1.012410e+05 1.012410e+05 1.012410e+05 1.006077e+05 1.006077e+05 1.006077e+05 1.005746e+05 1.002670e+05 1.002670e+05 1.002670e+05 1.001639e+05 9.986879e+04 9.995208e+04 9.995208e+04 9.995208e+04 9.994969e+04 1.001718e+05 1.001718e+05 1.001718e+05 1.002932e+05 1.002932e+05 1.006374e+05 1.006374e+05 1.005220e+05 1.030643e+05 1.030643e+05 1.030643e+05 1.030522e+05 1.030522e+05 1.007307e+05 1.008059e+05 1.008059e+05 1.026668e+05 1.026668e+05 1.026668e+05 1.026499e+05 1.026499e+05 1.028345e+05 1.028345e+05 1.028345e+05 1.028178e+05 1.015025e+05 1.014146e+05 1.015025e+05 1.015025e+05 1.018784e+05 1.024030e+05 1.024030e+05 1.024030e+05 1.023041e+05 1.023652e+05 1.024367e+05 1.024367e+05 1.022451e+05 1.022451e+05 1.022964e+05 1.022964e+05 1.026200e+05 1.026200e+05 1.026200e+05 1.026529e+05 1.026529e+05 1.023445e+05 1.023445e+05 1.023445e+05 1.023957e+05 1.024043e+05 1.023253e+05 1.023187e+05 1.027181e+05 1.027181e+05 1.027181e+05 1.027139e+05 1.027600e+05 1.027600e+05 1.027600e+05 1.027149e+05 1.021777e+05 1.021777e+05 1.021777e+05 1.031737e+05 1.031737e+05 1.031737e+05 1.015349e+05 1.015349e+05 1.015349e+05 1.033177e+05 1.033177e+05 1.033177e+05 1.009501e+05 1.009501e+05 1.009501e+05 1.011329e+05 1.010416e+05 1.011569e+05 1.011569e+05 1.011569e+05 1.009622e+05 1.009622e+05 1.010628e+05 1.013546e+05 1.013546e+05 1.013546e+05 1.013929e+05 1.009423e+05 1.009423e+05 1.009423e+05 1.009439e+05 1.009788e+05 1.009788e+05 1.036565e+05 1.036565e+05 1.036565e+05 1.036302e+05 1.007819e+05 1.007819e+05 1.007819e+05 1.008381e+05 1.006174e+05 1.006174e+05 1.006174e+05 1.006797e+05 1.031212e+05 1.031212e+05 1.031212e+05 1.013058e+05 1.013058e+05 1.013058e+05 1.013879e+05 1.004111e+05 1.004111e+05 1.004111e+05 1.004669e+05 1.001685e+05 1.001685e+05 1.001685e+05 1.003066e+05 1.005557e+05 1.005557e+05 1.005557e+05 1.005780e+05 1.037240e+05 1.037240e+05 1.037240e+05 1.032441e+05 1.032441e+05 1.032441e+05 1.032519e+05 1.029504e+05 1.029504e+05 1.029504e+05 1.028566e+05 1.025091e+05 1.025091e+05 1.025316e+05 1.007271e+05 1.007271e+05 1.007382e+05 9.986530e+04 9.986530e+04 9.995215e+04 1.001382e+05 1.001382e+05 1.001382e+05 1.001723e+05 1.004086e+05 1.004086e+05 1.004086e+05 1.031671e+05 1.031671e+05 1.031902e+05 1.005123e+05 1.005123e+05 1.004628e+05 1.001668e+05 1.027252e+05 1.027134e+05 9.994901e+04 9.994901e+04 9.986479e+04 1.035517e+05 1.035517e+05 1.035517e+05 1.035200e+05 1.003006e+05 1.003006e+05 1.022766e+05 1.022766e+05 1.022766e+05 1.037169e+05 1.037169e+05 1.037169e+05 1.036851e+05 1.036851e+05 1.035270e+05 1.035270e+05 1.035270e+05 1.035204e+05 1.031259e+05 1.031259e+05 1.031259e+05 1.031512e+05 1.031512e+05 1.001905e+05 1.001905e+05 1.001905e+05 1.002473e+05 1.002473e+05 1.036536e+05 1.036536e+05 1.036980e+05 1.036980e+05 1.036764e+05 1.036764e+05 1.036764e+05 1.027692e+05 1.027692e+05 1.027692e+05 1.027815e+05 1.002529e+05 1.002529e+05 1.002529e+05 1.001079e+05 1.001079e+05 1.005309e+05 1.005309e+05 1.005309e+05 1.004987e+05 1.004987e+05 1.008280e+05 1.008280e+05 1.008280e+05 1.008981e+05 1.008981e+05 1.017089e+05 1.017089e+05 1.017089e+05 1.018330e+05 1.018330e+05 1.024135e+05 1.024135e+05 1.024135e+05 1.024193e+05 1.033410e+05 1.033410e+05 1.034395e+05 1.034395e+05 1.034395e+05 1.033620e+05 1.033620e+05 1.014747e+05 1.014747e+05 1.014747e+05 1.013915e+05 1.013915e+05 1.016642e+05 1.016642e+05 1.016642e+05 1.015412e+05 1.015412e+05 1.018071e+05 1.018071e+05 1.019258e+05 1.019258e+05 1.022812e+05 1.022812e+05 1.024417e+05 1.024417e+05 1.019048e+05 1.020543e+05 1.020543e+05 1.025435e+05 1.025435e+05 1.025435e+05 1.026136e+05 1.026136e+05 1.025015e+05 1.025015e+05 1.023273e+05 1.023273e+05 1.023273e+05 1.023402e+05 1.024681e+05 1.023140e+05 1.024639e+05 1.022147e+05 1.022147e+05 1.022147e+05 1.022400e+05 1.022400e+05 1.016352e+05 1.016352e+05 1.016603e+05 1.016593e+05 1.016980e+05 1.030855e+05 1.030855e+05 1.030855e+05 1.030059e+05 1.035098e+05 1.035098e+05 1.034830e+05 1.000916e+05 1.000916e+05 1.000916e+05 1.001255e+05 1.001255e+05 1.001255e+05 1.001447e+05 1.002000e+05 1.034171e+05 1.034171e+05 1.034171e+05 1.002572e+05 9.986364e+04 9.997496e+04 9.997496e+04 1.028483e+05 1.028483e+05 1.009687e+05 1.010330e+05 1.010330e+05 1.010330e+05 1.014012e+05 1.014012e+05 1.014012e+05 1.013381e+05 1.037832e+05 1.038164e+05 1.038164e+05 1.036949e+05 1.036949e+05 1.036949e+05 1.036412e+05 9.993052e+04 9.993052e+04 9.996431e+04 9.984579e+04 1.037481e+05 1.037481e+05 1.033306e+05 1.033306e+05 9.992977e+04 9.992977e+04 1.000136e+05 1.000136e+05 1.000136e+05 1.035656e+05 1.035656e+05 1.035940e+05 1.002275e+05 1.002275e+05 1.002087e+05 1.031338e+05 1.035279e+05 1.034638e+05 1.034638e+05 1.034865e+05 1.009642e+05 1.009642e+05 1.009642e+05 1.009259e+05 1.019146e+05 1.019491e+05 1.037852e+05 1.037620e+05 1.024015e+05 1.024015e+05 1.021071e+05 1.021071e+05 1.021071e+05 1.020610e+05 9.991176e+04 9.991176e+04 9.997030e+04 9.997030e+04 1.006598e+05 1.034354e+05 1.034354e+05 1.034344e+05 1.013076e+05 1.013076e+05 1.013076e+05 9.991024e+04 1.037542e+05 1.036618e+05 1.016823e+05 1.016823e+05 1.016823e+05 1.016300e+05 1.000087e+05 1.000087e+05 1.000522e+05 1.016111e+05 1.016111e+05 1.015049e+05 9.995265e+04 9.995265e+04 1.000511e+05 1.000511e+05 1.036609e+05 1.026191e+05 1.026466e+05 1.014777e+05 1.036467e+05 1.036467e+05 1.021730e+05 9.991649e+04 9.996332e+04 9.996332e+04 9.987816e+04 9.987816e+04 1.000018e+05 1.000018e+05 1.033929e+05 1.033929e+05 1.010479e+05 1.036168e+05 1.008407e+05 1.008407e+05 1.009147e+05 1.017933e+05 1.017933e+05 1.017933e+05 1.038574e+05 1.038574e+05 1.003320e+05 1.001168e+05 1.001168e+05 1.019304e+05 1.018736e+05 1.022697e+05 1.005792e+05 1.001259e+05 1.000948e+05 1.034942e+05 1.013777e+05 1.003233e+05 1.003233e+05 1.003233e+05 1.004106e+05 1.033160e+05 1.002769e+05 1.000685e+05 1.000685e+05 1.021810e+05 1.020111e+05 9.996164e+04 9.996164e+04 1.035377e+05 1.035377e+05 1.002837e+05 1.002837e+05 1.000342e+05 1.013127e+05 1.013127e+05 1.001691e+05 1.000877e+05 1.002324e+05 1.001545e+05 1.012069e+05 1.012069e+05 1.011612e+05 1.011612e+05 9.998043e+04 1.003123e+05 1.037114e+05 1.001293e+05 1.001973e+05 1.021378e+05 1.029378e+05 1.003430e+05 1.000568e+05 1.000967e+05 1.000755e+05 1.021160e+05 1.021038e+05 1.037284e+05 1.037284e+05 1.011856e+05 1.012627e+05 1.024796e+05 9.998712e+04 1.030448e+05 1.030448e+05 1.024153e+05 1.024153e+05 1.024153e+05 1.002615e+05 1.010989e+05 1.000500e+05 1.032387e+05 1.032739e+05 1.033496e+05 1.033496e+05 1.033496e+05 1.019802e+05 1.019802e+05 1.019802e+05 1.019199e+05 1.036536e+05 1.010607e+05 1.011218e+05 1.003484e+05 1.003484e+05 1.003484e+05 1.023398e+05 1.023398e+05 1.023398e+05 1.023123e+05 1.015992e+05 1.015992e+05 1.016445e+05 1.007193e+05 1.007877e+05 1.000505e+05 1.001493e+05 1.001526e+05 1.001526e+05 1.001561e+05 1.002783e+05 1.002783e+05 1.003820e+05 1.003820e+05 1.000912e+05 1.035424e+05 1.002966e+05 1.037442e+05 1.037722e+05 1.036179e+05 1.036179e+05 1.036209e+05 1.036209e+05 1.022905e+05 1.024648e+05 1.006446e+05 1.034493e+05 1.034493e+05 1.025282e+05 1.025282e+05 1.032298e+05 1.004737e+05 1.004737e+05 1.004737e+05 1.028165e+05 1.003958e+05 1.001563e+05 1.001563e+05 1.001563e+05 1.002717e+05 1.002717e+05 1.017282e+05 1.018134e+05 1.037545e+05 1.037545e+05 1.037482e+05 1.003609e+05 1.004505e+05 1.014894e+05 1.014894e+05 1.013658e+05 1.020492e+05 1.034811e+05 1.002902e+05 1.002902e+05 1.002902e+05 1.002781e+05 1.037557e+05 1.037557e+05 1.037505e+05 1.035760e+05 1.035855e+05 1.035855e+05 1.003380e+05 1.003380e+05 1.003380e+05 1.000408e+05 1.000912e+05 1.001683e+05 1.002317e+05 1.002317e+05 1.009271e+05 1.007391e+05 1.007391e+05 1.008421e+05 1.026988e+05 1.025987e+05 1.025987e+05 1.035592e+05 1.035592e+05 1.004913e+05 1.012947e+05 1.012947e+05 1.003634e+05 1.004749e+05 1.004749e+05 1.005538e+05 1.006274e+05 1.010387e+05 1.033522e+05 1.003783e+05 1.003783e+05 1.003783e+05 1.001745e+05 1.035247e+05 1.035160e+05 1.006726e+05 1.006726e+05 1.034078e+05 1.034078e+05 1.034078e+05 1.020189e+05 1.020189e+05 1.020189e+05 1.013680e+05 1.001747e+05 1.017760e+05 1.017760e+05 1.017760e+05 1.004960e+05 1.037288e+05 1.003379e+05 1.003032e+05 1.009421e+05 1.011052e+05 1.011052e+05 1.014932e+05 1.008291e+05 1.036550e+05 1.037345e+05 1.037345e+05 1.006386e+05 1.030940e+05 1.030940e+05 1.029677e+05 1.029743e+05 1.033319e+05 1.032977e+05 1.032977e+05 1.028480e+05 1.017660e+05 1.017660e+05 1.016499e+05 1.016499e+05 1.032008e+05 1.032008e+05 1.031585e+05 1.031585e+05 1.007280e+05 1.037169e+05 1.036976e+05 1.009709e+05 1.009709e+05 1.023124e+05 1.006326e+05 1.024537e+05 1.029577e+05 1.022778e+05 1.022778e+05 1.005944e+05 1.003335e+05 1.019081e+05 1.033703e+05 1.034297e+05 1.034297e+05 1.005177e+05 1.021174e+05 1.021174e+05 1.021006e+05 1.008928e+05 1.008928e+05 1.008928e+05 1.005241e+05 1.016411e+05 1.006510e+05 1.006510e+05 1.004767e+05 1.024993e+05 1.024993e+05 1.020096e+05 1.035581e+05 1.035581e+05 1.035581e+05 1.013448e+05 1.036161e+05 1.014734e+05 1.025209e+05 1.021342e+05 1.009622e+05 1.011048e+05 1.011048e+05 1.003710e+05 1.004380e+05 1.004380e+05 1.005914e+05 1.006403e+05 1.004588e+05 1.005643e+05 1.005643e+05 1.036539e+05 1.036539e+05 1.036539e+05 1.032495e+05 1.032686e+05 1.032686e+05 1.005250e+05 1.034886e+05 1.023774e+05 1.010946e+05 1.010946e+05 1.007698e+05 1.007698e+05 1.004573e+05 1.036956e+05 1.036956e+05 1.005866e+05 1.027068e+05 1.026416e+05 1.026416e+05 1.015316e+05 1.015316e+05 1.027312e+05 1.027312e+05 1.008775e+05 1.007972e+05 1.004262e+05 1.023187e+05 1.036835e+05 1.036835e+05 1.033355e+05 1.021013e+05 1.021013e+05 1.020470e+05 1.020470e+05 1.008184e+05 1.009950e+05 1.005421e+05 1.003831e+05 1.014217e+05 1.013612e+05 1.005037e+05 1.018609e+05 1.018609e+05 1.018609e+05 1.034258e+05 1.034258e+05 1.034972e+05 1.007163e+05 1.007163e+05 1.007163e+05 1.007480e+05 1.007480e+05 1.028458e+05 1.028458e+05 1.028891e+05 1.034943e+05 1.035354e+05 1.009219e+05 1.032664e+05 1.032664e+05 1.032635e+05 1.012987e+05 1.033945e+05 1.033945e+05 1.016692e+05 1.007346e+05 1.007346e+05 1.007346e+05 1.007140e+05 1.022131e+05 1.008651e+05 1.008924e+05 1.009090e+05 1.006923e+05 1.022366e+05 1.019126e+05 1.006376e+05 1.035684e+05 1.035534e+05 1.035534e+05 1.035534e+05 1.036127e+05 1.006697e+05 1.035513e+05 1.030256e+05 1.030945e+05 1.020283e+05 1.020283e+05 1.020283e+05 1.011361e+05 1.011361e+05 1.011361e+05 1.011462e+05 1.011462e+05 1.035929e+05 1.035017e+05 1.035017e+05 1.035017e+05 1.013717e+05 1.028881e+05 1.028881e+05 1.028881e+05 1.011996e+05 1.022936e+05 1.022936e+05 1.022936e+05 1.008038e+05 1.008038e+05 1.008038e+05 1.007368e+05 1.010073e+05 1.032266e+05 1.032266e+05 1.027158e+05 1.034887e+05 1.010145e+05 1.010444e+05 1.010444e+05 1.010444e+05 1.017649e+05 1.031247e+05 1.030357e+05 1.008509e+05 1.009127e+05 1.014993e+05 1.012320e+05 1.034680e+05 1.034680e+05 1.034680e+05 1.033405e+05 1.025466e+05 1.015284e+05 1.033776e+05 1.011787e+05 1.011787e+05 1.011797e+05 1.017723e+05 1.013125e+05 1.013125e+05 1.012228e+05 1.011752e+05 1.009627e+05 1.009627e+05 1.022526e+05 1.022526e+05 1.023319e+05 1.022364e+05 1.031948e+05 1.032007e+05 1.016021e+05 1.016776e+05 1.026816e+05 1.035211e+05 1.036031e+05 1.010376e+05 1.013567e+05 1.013567e+05 1.013567e+05 1.033351e+05 1.033351e+05 1.020556e+05 1.020556e+05 1.020782e+05 1.031388e+05 1.026120e+05 1.026548e+05 1.026548e+05 1.013668e+05 1.013668e+05 1.012504e+05 1.010944e+05 1.010944e+05 1.014505e+05 1.010433e+05 1.011981e+05 1.012954e+05 1.013687e+05 1.013597e+05 1.014354e+05 1.028547e+05 1.023829e+05 1.023829e+05 1.023829e+05 1.024352e+05 1.032526e+05 1.034760e+05 1.017197e+05 1.033940e+05 1.022571e+05 1.022571e+05 1.024531e+05 1.019995e+05 1.019995e+05 1.020680e+05 1.020680e+05 1.015461e+05 1.015893e+05 1.017075e+05 1.012374e+05 1.018101e+05 1.013453e+05 1.023336e+05 1.023336e+05 1.018001e+05 1.018001e+05 1.018001e+05 1.017096e+05 1.033043e+05 1.033026e+05 1.015835e+05 1.013659e+05 1.015152e+05 1.025892e+05 1.019784e+05 1.019784e+05 1.024638e+05 1.024638e+05 1.015983e+05 1.015983e+05 1.022240e+05 1.031997e+05 1.030801e+05 1.030801e+05 1.029837e+05 1.015939e+05 1.024205e+05 1.032553e+05 1.016862e+05 1.016862e+05 1.017592e+05 1.020200e+05 1.020870e+05 1.030933e+05 1.030933e+05 1.018943e+05 1.018943e+05 1.017457e+05 1.017339e+05 1.017339e+05 1.020881e+05 1.028837e+05 1.017177e+05 1.023800e+05 1.027623e+05 1.030561e+05 1.017490e+05 1.019697e+05 1.025863e+05 1.025863e+05 1.028953e+05 1.018500e+05 1.018784e+05 1.019096e+05 1.019096e+05 1.019096e+05 1.019513e+05 1.021637e+05 1.021637e+05 1.029323e+05 1.029323e+05 1.028212e+05 1.028212e+05 1.022097e+05 1.019973e+05 1.019860e+05 1.025336e+05 1.025336e+05 1.025336e+05 1.024430e+05 1.020410e+05 1.020410e+05 1.025979e+05 1.025979e+05 1.022507e+05 1.022507e+05 1.023037e+05 1.021323e+05 1.021323e+05 1.021323e+05 1.021156e+05 1.022705e+05 1.021780e+05 1.021780e+05 1.019404e+05 1.021273e+05 1.022856e+05 1.021596e+05 1.021219e+05 1.021219e+05 1.020448e+05 1.027253e+05 1.021953e+05 1.021986e+05 1.022655e+05 1.020978e+05 1.020978e+05 1.024980e+05 1.024487e+05 1.026824e+05 1.021771e+05 1.021771e+05 1.020541e+05 1.027096e+05 1.027096e+05 1.025964e+05 1.022904e+05 1.022976e+05 1.022976e+05 1.022976e+05 1.022721e+05 1.024982e+05 1.023352e+05 1.022871e+05 1.024144e+05 1.023352e+05 1.023706e+05 1.024294e+05 1.024294e+05 1.023484e+05 1.023824e+05 1.023007e+05 1.023179e+05 1.023090e+05 1.023090e+05 1.023090e+05 1.023218e+05 1.024038e+05 1.024038e+05 1.024038e+05 1.023044e+05 1.023044e+05 1.024284e+05 1.023392e+05 1.022826e+05 1.024339e+05 1.023370e+05 1.024051e+05 1.023286e+05 1.023202e+05 1.023725e+05 1.023725e+05 1.023830e+05 1.023830e+05 1.023241e+05 1.023767e+05 1.023767e+05 1.023767e+05 1.023727e+05 1.023727e+05 1.023498e+05 1.023498e+05 1.023498e+05 1.031257e+05 1.031899e+05 1.031899e+05 1.031899e+05 1.023274e+05 1.023274e+05 1.030759e+05 1.030759e+05 1.030759e+05 1.031900e+05 1.031900e+05 1.023987e+05 1.023549e+05 1.030764e+05 1.030764e+05 1.030156e+05 1.024137e+05 1.032048e+05 1.032042e+05 1.032110e+05 1.023140e+05 1.023201e+05 1.023496e+05 1.024026e+05 1.024026e+05 1.024420e+05 1.036872e+05 1.027091e+05 1.027091e+05 1.027091e+05 1.026028e+05 1.029286e+05 1.029286e+05 1.029286e+05 1.029679e+05 1.029285e+05 1.029285e+05 1.035313e+05 1.027489e+05 1.027489e+05 1.027489e+05 1.028265e+05 1.024967e+05 1.036331e+05 1.036331e+05 1.036331e+05 1.029508e+05 1.034970e+05 1.034970e+05 1.033202e+05 1.033202e+05 1.033202e+05 1.028230e+05 1.028230e+05 1.028230e+05 1.029962e+05 1.028549e+05 1.028549e+05 1.027264e+05 1.030129e+05 1.027201e+05 1.028325e+05 1.028742e+05 1.026498e+05 1.026872e+05 1.025546e+05 1.026768e+05 1.025138e+05 1.025057e+05 1.025495e+05 1.025495e+05 1.025000e+05 1.025000e+05 1.025000e+05 1.024120e+05 1.036229e+05 1.030337e+05 1.030337e+05 1.028768e+05 1.028396e+05 1.027036e+05 1.027036e+05 1.034090e+05 1.034090e+05 1.032696e+05 1.032696e+05 1.030827e+05 1.029851e+05 1.027498e+05 1.026850e+05 1.025247e+05 1.025247e+05 1.023768e+05 1.024193e+05 1.035733e+05 1.035733e+05 1.027035e+05 1.025284e+05 1.025284e+05 1.026327e+05 1.025099e+05 1.024760e+05 1.024449e+05 1.024449e+05 1.024449e+05 1.024654e+05 1.024654e+05 1.024242e+05 1.024387e+05 1.024387e+05 1.024387e+05 1.025078e+05 1.025078e+05 1.024095e+05 1.024406e+05 1.024406e+05 1.023957e+05 1.024158e+05 1.024158e+05 1.023651e+05 1.024251e+05 1.024170e+05 1.024212e+05 1.024212e+05 1.024212e+05 1.024478e+05 1.024561e+05 1.023583e+05 1.024319e+05 1.031292e+05 1.023655e+05 1.023437e+05 1.023956e+05 1.024058e+05 1.032609e+05 1.033988e+05 1.033988e+05 1.034414e+05 1.034414e+05 1.035221e+05 1.035221e+05 1.035221e+05 1.035818e+05 1.036182e+05 1.036182e+05 1.036182e+05 1.037038e+05 1.024124e+05 1.024200e+05 1.024200e+05 1.024200e+05 1.024536e+05 1.024501e+05 1.024580e+05 1.026602e+05 1.024631e+05 1.024820e+05 1.024833e+05 1.024869e+05 1.024981e+05 1.024905e+05 1.024731e+05 1.024334e+05 1.024441e+05 1.024350e+05 1.024350e+05 1.024200e+05 1.024200e+05 1.024490e+05 1.024342e+05 1.024117e+05 1.024183e+05 1.032152e+05 1.033364e+05 1.035871e+05 1.037714e+05 1.037894e+05 1.038056e+05 1.037895e+05 1.037804e+05 1.037877e+05 1.037822e+05 1.037710e+05 1.037764e+05 1.037705e+05 1.037443e+05 1.037223e+05 1.023730e+05 1.023730e+05 1.023917e+05 1.023917e+05 1.023923e+05 1.024030e+05 1.024137e+05 1.024137e+05 1.024137e+05 1.024124e+05 1.024140e+05 1.024140e+05 1.023826e+05 1.023826e+05 1.023826e+05 1.024730e+05 1.024730e+05 1.024730e+05 1.024848e+05 1.024848e+05 1.023762e+05 1.023762e+05 1.023762e+05 1.024076e+05 1.023730e+05 1.023927e+05 1.023927e+05 1.024068e+05 1.024731e+05 1.024731e+05 1.037578e+05 1.037578e+05 1.037578e+05 1.038048e+05 1.038048e+05 1.023911e+05 1.024171e+05 1.024171e+05 1.037079e+05 1.037079e+05 1.037459e+05 1.034996e+05 1.034996e+05 1.034996e+05 1.030507e+05 1.030507e+05 1.030507e+05 1.029109e+05 1.029109e+05 1.024248e+05 1.037135e+05 1.037135e+05 1.037135e+05 1.036859e+05 1.037774e+05 1.037774e+05 1.037774e+05 1.037605e+05 1.037667e+05 1.037283e+05 1.037283e+05 1.037283e+05 1.038043e+05 1.036653e+05 1.036653e+05 1.036653e+05 1.037457e+05 1.032293e+05 1.033103e+05 1.032293e+05 1.032293e+05 1.024694e+05 1.024694e+05 1.023746e+05 1.034827e+05 1.034827e+05 1.036939e+05 1.037443e+05 1.038240e+05 1.038240e+05 1.037457e+05 1.037535e+05 1.037332e+05 1.037664e+05 1.037698e+05 1.037351e+05 1.037351e+05 1.036968e+05 1.037272e+05 1.037356e+05 1.036968e+05 1.037424e+05 1.036938e+05 1.036938e+05 1.036983e+05 1.036983e+05 1.036839e+05 1.036857e+05 1.037135e+05 1.036929e+05 1.036929e+05 1.036677e+05 1.036950e+05 1.036378e+05 1.036044e+05 1.036044e+05 1.033103e+05 1.031951e+05 1.031951e+05 1.031161e+05 1.031161e+05 1.029520e+05 1.029799e+05 1.028034e+05 1.025090e+05 1.023746e+05 1.023746e+05 1.024336e+05 1.024336e+05 1.024336e+05 1.024375e+05 1.023940e+05 1.024377e+05 1.024377e+05 1.024377e+05 1.024532e+05 1.024873e+05 1.024873e+05 1.024873e+05 1.024776e+05 1.024660e+05 1.025999e+05 1.025999e+05 1.025999e+05 1.026351e+05 1.027581e+05 1.027581e+05 1.027581e+05 1.027517e+05 1.027175e+05 1.026194e+05 1.026194e+05 1.026615e+05 1.029919e+05 1.029919e+05 1.029919e+05 1.030615e+05 1.030615e+05 1.029648e+05 1.029648e+05 1.029648e+05 1.024911e+05 1.024911e+05 1.028792e+05 1.028792e+05 1.028792e+05 1.028522e+05 1.028522e+05 1.033324e+05 1.033324e+05 1.033324e+05 1.031522e+05 1.031522e+05 1.031522e+05 1.028459e+05 1.028459e+05 1.028459e+05 1.024945e+05 1.031318e+05 1.030986e+05 1.029012e+05 1.028830e+05 1.032909e+05 1.031737e+05 1.031737e+05 1.028085e+05 1.028085e+05 1.028804e+05 1.027983e+05 1.030101e+05 1.030101e+05 1.030101e+05 1.033030e+05 1.034827e+05 1.028453e+05 1.026976e+05 1.026976e+05 1.026976e+05 1.029587e+05 1.027803e+05 1.026845e+05 1.026414e+05 1.025941e+05 1.027167e+05 1.025719e+05 1.025603e+05 1.025569e+05 1.025569e+05 1.024113e+05 1.035232e+05 1.035232e+05 1.031270e+05 1.027441e+05 1.027441e+05 1.030183e+05 1.036109e+05 1.026470e+05 1.026470e+05 1.025228e+05 1.025228e+05 1.025228e+05 1.029115e+05 1.031839e+05 1.025637e+05 1.026096e+05 1.025363e+05 1.024985e+05 1.025130e+05 1.025130e+05 1.025130e+05 1.024364e+05 1.024364e+05 1.024991e+05 1.024891e+05 1.024891e+05 1.024509e+05 1.024787e+05 1.024248e+05 1.024331e+05 1.024331e+05 1.024078e+05 1.024049e+05 1.031288e+05 1.034733e+05 1.034733e+05 1.035851e+05 1.035851e+05 1.033644e+05 1.023897e+05 1.027447e+05 1.031010e+05 1.032393e+05 1.032456e+05 1.033068e+05 1.033068e+05 1.033940e+05 1.033940e+05 1.033940e+05 1.034868e+05 1.035874e+05 1.036118e+05 1.036293e+05 1.036293e+05 1.036505e+05 1.037207e+05 1.025516e+05 1.026116e+05 1.032963e+05 1.036586e+05 1.026456e+05 1.026213e+05 1.025338e+05 1.025009e+05 1.025688e+05 1.025090e+05 1.024563e+05 1.025627e+05 1.024628e+05 1.024628e+05 1.024663e+05 1.024401e+05 1.024231e+05 1.024228e+05 1.024228e+05 1.024154e+05 1.024407e+05 1.024419e+05 1.032226e+05 1.033440e+05 1.034765e+05 1.036680e+05 1.035228e+05 1.036010e+05 1.034051e+05 1.036509e+05 1.035693e+05 1.024151e+05 1.023917e+05 1.037894e+05 1.037977e+05 1.037832e+05 1.037852e+05 1.037918e+05 1.037632e+05 1.037645e+05 1.037542e+05 1.037392e+05 1.037172e+05 1.036896e+05 1.036703e+05 1.036481e+05 1.036140e+05 1.036082e+05 1.036178e+05 1.035687e+05 1.035398e+05 1.035300e+05 1.034972e+05 1.034863e+05 1.034458e+05 1.034979e+05 1.033784e+05 1.033610e+05 1.033095e+05 1.032630e+05 1.032116e+05 1.031708e+05 1.031366e+05 1.030785e+05 1.030572e+05 1.029766e+05 1.029280e+05 1.028857e+05 1.028029e+05 1.027579e+05 1.026826e+05 1.026191e+05 1.025722e+05 1.025522e+05 1.025003e+05 1.024233e+05 1.023342e+05 1.023151e+05 1.022565e+05 1.022032e+05 1.021810e+05 1.021217e+05 1.020641e+05 1.020092e+05 1.019146e+05 1.018391e+05 1.017403e+05 1.017021e+05 1.016297e+05 1.015451e+05 1.014971e+05 1.014249e+05 1.013773e+05 1.013443e+05 1.012764e+05 1.012178e+05 1.011663e+05 1.011772e+05 1.010647e+05 1.009687e+05 1.009415e+05 1.008947e+05 1.008166e+05 1.007283e+05 1.007162e+05 1.006417e+05 1.005894e+05 1.005227e+05 1.005083e+05 1.004268e+05 1.004077e+05 1.003591e+05 1.003253e+05 1.002861e+05 1.002365e+05 1.001759e+05 1.001420e+05 1.001182e+05 1.000841e+05 1.000551e+05 1.000331e+05 1.000223e+05 9.999737e+04 9.994645e+04 9.993206e+04 9.988556e+04 9.988523e+04 9.987699e+04 9.984579e+04 9.987315e+04 9.986879e+04 9.985840e+04 9.984841e+04 9.986223e+04 9.986182e+04 9.984574e+04 9.984139e+04 9.982680e+04 9.985017e+04 9.984101e+04 9.981687e+04 9.986619e+04 9.984958e+04 9.988439e+04 9.991024e+04 9.990416e+04 9.992963e+04 9.994940e+04 9.994635e+04 9.999534e+04 1.000142e+05 1.000412e+05 1.000591e+05 1.000948e+05 1.001259e+05 1.001766e+05 1.001766e+05 1.023251e+05 1.023251e+05 1.023841e+05 1.023906e+05 1.023962e+05 1.024058e+05 1.024120e+05 1.024120e+05 1.024139e+05 1.024154e+05 1.024231e+05 1.024231e+05 1.024324e+05 1.024324e+05 1.024563e+05 1.024660e+05 1.024862e+05 1.024751e+05 1.025009e+05 1.025516e+05 1.025516e+05 1.026116e+05 1.026116e+05 1.026456e+05 1.026309e+05 1.027441e+05 1.027447e+05 1.027395e+05 1.028459e+05 1.028821e+05 1.028830e+05 1.029156e+05 1.030126e+05 1.030615e+05 1.030837e+05 1.031951e+05 1.032393e+05 1.032393e+05 1.032263e+05 1.033459e+05 1.033459e+05 1.035216e+05 1.034245e+05 1.034245e+05 1.035232e+05 1.036118e+05 1.036118e+05 1.036293e+05 1.036586e+05 1.036772e+05 1.036772e+05 1.037494e+05 1.037332e+05 1.037535e+05 1.038013e+05 1.037489e+05 1.023139e+05 1.025982e+05 1.025982e+05 1.025982e+05 1.026506e+05 1.023510e+05 1.023510e+05 1.023510e+05 1.023986e+05 1.023986e+05 1.026447e+05 1.026447e+05 1.026447e+05 1.026660e+05 1.026021e+05 1.023274e+05 1.024654e+05 1.024654e+05 1.024998e+05 1.025820e+05 1.025820e+05 1.025820e+05 1.025843e+05 1.025602e+05 1.015338e+05 1.015338e+05 1.015338e+05 1.014904e+05 1.023540e+05 1.023540e+05 1.023540e+05 1.023644e+05 1.023727e+05 1.023727e+05 1.025751e+05 1.025751e+05 1.025222e+05 1.024626e+05 1.023139e+05 1.023139e+05 1.024005e+05 1.024005e+05 1.024005e+05 1.023895e+05 1.023911e+05 1.023911e+05 1.023765e+05 1.023957e+05 1.023957e+05 1.023957e+05 1.024310e+05 1.024566e+05 1.024434e+05 1.024739e+05 1.023285e+05 1.023285e+05 1.023285e+05 1.023023e+05 1.023252e+05 1.022856e+05 1.021807e+05 1.022856e+05 1.029070e+05 1.029070e+05 1.029070e+05 1.030245e+05 1.030245e+05 1.030245e+05 1.029481e+05 1.011471e+05 1.011515e+05 1.011471e+05 1.011471e+05 1.017103e+05 1.017103e+05 1.017103e+05 1.016584e+05 1.023754e+05 1.023754e+05 1.023754e+05 1.024044e+05 1.028984e+05 1.028984e+05 1.028984e+05 1.028578e+05 1.028578e+05 1.004791e+05 1.004791e+05 1.004791e+05 1.004948e+05 1.003888e+05 1.003888e+05 1.003888e+05 1.004219e+05 1.004219e+05 1.036068e+05 1.036068e+05 1.036068e+05 1.036227e+05 1.005441e+05 1.005441e+05 1.005441e+05 1.006420e+05 1.006420e+05 1.005220e+05 1.006374e+05 1.026208e+05 1.026208e+05 1.026208e+05 1.026360e+05 1.029751e+05 1.029751e+05 1.029751e+05 1.030434e+05 1.030434e+05 1.004992e+05 1.004992e+05 1.004992e+05 1.005250e+05 1.027420e+05 1.027420e+05 1.027420e+05 1.027920e+05 9.992963e+04 1.012410e+05 1.012410e+05 1.012410e+05 1.006077e+05 1.006077e+05 1.006077e+05 1.005746e+05 1.002670e+05 1.002670e+05 1.002670e+05 1.001639e+05 9.986879e+04 9.995208e+04 9.995208e+04 9.995208e+04 9.994969e+04 1.001718e+05 1.001718e+05 1.001718e+05 1.002932e+05 1.002932e+05 1.006374e+05 1.006374e+05 1.005220e+05 1.030643e+05 1.030643e+05 1.030643e+05 1.030522e+05 1.030522e+05 1.007307e+05 1.008059e+05 1.008059e+05 1.026668e+05 1.026668e+05 1.026668e+05 1.026499e+05 1.026499e+05 1.028345e+05 1.028345e+05 1.028345e+05 1.028178e+05 1.015025e+05 1.014146e+05 1.015025e+05 1.015025e+05 1.018784e+05 1.024030e+05 1.024030e+05 1.024030e+05 1.023041e+05 1.023652e+05 1.024367e+05 1.024367e+05 1.022451e+05 1.022451e+05 1.022964e+05 1.022964e+05 1.026200e+05 1.026200e+05 1.026200e+05 1.026529e+05 1.026529e+05 1.023445e+05 1.023445e+05 1.023445e+05 1.023957e+05 1.024043e+05 1.023253e+05 1.023187e+05 1.027181e+05 1.027181e+05 1.027181e+05 1.027139e+05 1.027600e+05 1.027600e+05 1.027600e+05 1.027149e+05 1.021777e+05 1.021777e+05 1.021777e+05 1.031737e+05 1.031737e+05 1.031737e+05 1.015349e+05 1.015349e+05 1.015349e+05 1.033177e+05 1.033177e+05 1.033177e+05 1.009501e+05 1.009501e+05 1.009501e+05 1.011329e+05 1.010416e+05 1.011569e+05 1.011569e+05 1.011569e+05 1.009622e+05 1.009622e+05 1.010628e+05 1.013546e+05 1.013546e+05 1.013546e+05 1.013929e+05 1.009423e+05 1.009423e+05 1.009423e+05 1.009439e+05 1.009788e+05 1.009788e+05 1.036565e+05 1.036565e+05 1.036565e+05 1.036302e+05 1.007819e+05 1.007819e+05 1.007819e+05 1.008381e+05 1.006174e+05 1.006174e+05 1.006174e+05 1.006797e+05 1.031212e+05 1.031212e+05 1.031212e+05 1.013058e+05 1.013058e+05 1.013058e+05 1.013879e+05 1.004111e+05 1.004111e+05 1.004111e+05 1.004669e+05 1.001685e+05 1.001685e+05 1.001685e+05 1.003066e+05 1.005557e+05 1.005557e+05 1.005557e+05 1.005780e+05 1.