<?xml version="1.0"?>
 <VTKFile type="UnstructuredGrid" version="1.0" byte_order="LittleEndian" header_type="UInt64">
  <UnstructuredGrid>
    <FieldData>
     <DataArray type="Float64" Name="TimeValue" NumberOfTuples="1" format="ascii">
0.00031
     </DataArray>
    </FieldData>
   <Piece NumberOfPoints="3632" NumberOfCells="3379">
    <PointData>
     <DataArray type="Float64" Name="pointP" format="ascii">
8.917671e+05 8.917671e+05 8.896996e+05 8.886167e+05 8.851918e+05 8.824475e+05 8.748956e+05 8.703847e+05 8.653809e+05 8.590069e+05 8.539685e+05 8.480186e+05 8.414744e+05 8.356574e+05 8.307275e+05 8.214691e+05 8.166111e+05 8.096264e+05 8.069786e+05 8.005237e+05 7.956211e+05 7.878325e+05 7.798058e+05 7.715945e+05 7.609022e+05 7.567327e+05 7.489331e+05 7.421818e+05 7.330890e+05 7.243427e+05 7.181682e+05 7.085552e+05 6.993484e+05 6.890368e+05 6.794394e+05 6.732612e+05 6.654049e+05 6.554565e+05 6.486111e+05 6.414668e+05 6.320755e+05 6.215875e+05 6.122483e+05 6.008035e+05 5.925326e+05 5.835076e+05 5.717793e+05 5.595683e+05 5.492866e+05 5.389176e+05 5.280469e+05 5.173267e+05 5.073677e+05 4.955768e+05 4.820853e+05 4.722411e+05 4.585862e+05 4.491045e+05 4.383704e+05 4.275961e+05 4.172126e+05 4.057405e+05 3.946148e+05 3.855390e+05 3.764609e+05 3.658600e+05 3.541873e+05 3.448322e+05 3.342443e+05 3.237442e+05 3.118067e+05 3.035670e+05 2.934545e+05 2.834621e+05 2.726735e+05 2.643880e+05 2.539832e+05 2.442554e+05 2.349939e+05 2.254451e+05 2.146482e+05 2.057001e+05 1.960404e+05 1.875619e+05 1.784229e+05 1.690670e+05 1.599992e+05 1.516379e+05 1.419467e+05 1.337897e+05 1.257945e+05 1.176795e+05 1.096126e+05 1.021588e+05 9.453072e+04 8.697910e+04 7.997091e+04 7.358230e+04 6.649749e+04 5.853437e+04 5.225316e+04 4.620620e+04 4.084050e+04 3.455689e+04 2.888752e+04 2.356344e+04 1.910844e+04 1.439901e+04 9.564099e+03 5.804190e+03 1.625328e+03 -3.488211e+02 -5.545695e+03 -1.107002e+04 -1.451099e+04 -1.689642e+04 -1.916488e+04 -2.254664e+04 -2.542910e+04 -2.914643e+04 -2.986104e+04 -3.085355e+04 -2.811906e+04 -3.108429e+04 -3.310576e+04 -3.278595e+04 -3.265642e+04 -2.834431e+04 -2.399515e+04 -3.053987e+04 -3.262646e+04 -3.086336e+04 -3.380183e+04 -2.838306e+04 -3.483075e+04 -3.469817e+04 -2.852179e+04 -3.190064e+04 -2.595386e+04 -2.165421e+04 -2.673001e+04 -2.500148e+04 -2.100993e+04 -1.392314e+04 -6.687782e+03 -1.998406e+04 -6.662579e+03 -8.270243e+03 6.063083e+02 -1.247699e+04 -1.575222e+04 -9.406757e+03 -3.286629e+03 -1.907340e+04 -2.477041e+04 -2.126029e+02 -8.263052e+03 -1.141014e+04 -1.401741e+04 -1.553003e+04 -1.067999e+03 -1.537631e+04 -1.068846e+04 -4.253985e+01 2.485343e+02 -1.962223e+04 -2.368407e+04 -2.014328e+04 -3.166921e+03 -3.140848e+04 -2.662142e+04 -1.769377e+03 9.166877e+02 1.024302e+04 1.414537e+03 5.922278e+03 -2.111302e+04 -3.033164e+04 1.358652e+03 -7.400474e+02 -7.022141e+04 1.102418e+05 1.102418e+05 1.102418e+05 1.279264e+05 1.279264e+05 1.279264e+05 1.319140e+05 1.283719e+05 1.515102e+05 1.394191e+05 1.746723e+05 1.746723e+05 1.746723e+05 1.745947e+05 5.095034e+04 5.095034e+04 5.095034e+04 5.068219e+04 5.685059e+04 4.361585e+05 4.361585e+05 4.361585e+05 4.330314e+05 4.368010e+05 4.368010e+05 4.368010e+05 4.238398e+05 8.445680e+04 8.445680e+04 8.445680e+04 9.090309e+04 9.610903e+04 9.644143e+04 -1.222315e+05 -1.222315e+05 -1.222315e+05 -1.343077e+05 -1.343077e+05 4.688009e+05 4.688009e+05 4.688009e+05 4.568955e+05 -1.758747e+05 -1.758747e+05 -1.758747e+05 -1.995775e+05 -1.995775e+05 7.529974e+05 7.529974e+05 7.529974e+05 2.577196e+05 2.577196e+05 2.577196e+05 2.618113e+05 1.731216e+05 1.731216e+05 1.731216e+05 4.973603e+05 4.973603e+05 4.973603e+05 5.170030e+05 -4.231851e+04 -4.231851e+04 -7.059369e+04 -7.059369e+04 3.011497e+05 3.011497e+05 3.067285e+05 4.979574e+05 4.979574e+05 4.979574e+05 5.313760e+05 5.313760e+05 -3.298320e+05 -3.298320e+05 -3.298320e+05 -2.978373e+05 -2.978373e+05 7.613359e+04 7.613359e+04 7.613359e+04 6.732520e+04 6.732520e+04 4.545160e+05 4.545160e+05 2.911679e+05 2.911679e+05 2.911679e+05 2.896429e+05 1.804336e+05 1.804336e+05 1.804336e+05 1.759778e+05 1.752692e+05 3.303307e+05 3.303307e+05 3.303307e+05 2.750848e+05 2.750848e+05 2.766453e+05 6.732612e+05 6.582929e+05 6.582929e+05 1.024302e+04 -1.382319e+05 -1.382319e+05 1.724736e+05 -3.310576e+04 -3.801758e+04 1.645843e+05 1.255648e+05 1.255648e+05 1.255648e+05 1.320012e+05 7.204136e+04 1.261176e+05 1.261176e+05 1.261176e+05 1.372552e+05 1.372552e+05 4.307517e+04 4.307517e+04 4.307517e+04 5.172696e+04 -2.723583e+04 -2.723583e+04 -2.723583e+04 -2.922819e+04 4.175865e+05 4.125356e+05 3.995566e+05 4.463996e+05 4.463996e+05 1.457540e+05 1.457540e+05 1.457540e+05 1.517685e+05 3.115669e+05 3.115669e+05 3.115669e+05 3.186493e+05 3.186493e+05 3.093042e+05 -6.748922e+04 -6.748922e+04 -6.748922e+04 -7.194948e+04 -3.099297e+04 -3.099297e+04 -3.099297e+04 -2.725012e+04 -1.810954e+04 2.532758e+05 2.532758e+05 2.532758e+05 2.534833e+05 -2.082831e+05 -2.410405e+05 3.765636e+04 3.765636e+04 3.765636e+04 4.477927e+04 -1.151659e+05 -1.151659e+05 -1.151659e+05 -1.106916e+05 3.814967e+05 3.814967e+05 3.814967e+05 3.965570e+05 3.965570e+05 -1.642026e+05 -1.642026e+05 -1.642026e+05 -1.508182e+05 4.258949e+05 4.258949e+05 4.258949e+05 4.127468e+05 5.458238e+05 5.458238e+05 5.458238e+05 5.545939e+05 -5.133759e+04 -5.133759e+04 -4.317429e+04 1.852499e+05 1.852499e+05 2.033439e+05 2.033439e+05 2.033439e+05 1.398849e+05 1.398849e+05 1.398849e+05 1.371133e+05 -1.535268e+05 -1.535268e+05 -1.535268e+05 -1.722430e+05 -1.722430e+05 7.241794e+05 7.241794e+05 7.241794e+05 7.053205e+05 7.053205e+05 1.898857e+05 4.406079e+05 4.406079e+05 4.465248e+05 -1.283085e+05 -1.283085e+05 -1.283085e+05 -1.610856e+05 -6.145496e+04 -6.145496e+04 -1.351201e+05 -1.351201e+05 6.264606e+05 6.264606e+05 6.289063e+05 5.344131e+05 5.344131e+05 -5.334723e+04 -5.334723e+04 -1.465729e+05 -1.465729e+05 4.866237e+05 4.866237e+05 4.866237e+05 4.808588e+05 1.708768e+05 1.645749e+05 2.744987e+05 2.744987e+05 2.744987e+05 2.740515e+05 3.311160e+05 3.311160e+05 3.311160e+05 3.227930e+05 3.227930e+05 -3.880580e+05 -3.880580e+05 -3.880580e+05 -4.073367e+05 -4.073367e+05 3.006184e+05 3.077886e+05 7.432689e+05 7.432689e+05 7.432689e+05 7.356628e+05 -1.983827e+05 -1.983827e+05 -1.983827e+05 -2.385847e+05 -2.385847e+05 -1.962029e+05 -1.954934e+05 1.866005e+05 1.866005e+05 1.866005e+05 1.784166e+05 1.784166e+05 1.019382e+05 1.046791e+05 1.046791e+05 -9.928063e+04 -9.928063e+04 -9.928063e+04 -9.816384e+04 -9.816384e+04 -6.705193e+04 -6.705193e+04 -6.705193e+04 -7.370831e+04 -7.370831e+04 -1.676907e+05 -1.676907e+05 -1.637162e+05 -1.637162e+05 1.765315e+05 1.765315e+05 1.694781e+05 -1.514473e+05 -1.514473e+05 -1.543460e+05 -1.543460e+05 -7.586578e+04 -7.586578e+04 -7.586578e+04 -6.267842e+04 5.104950e+04 5.104950e+04 5.104950e+04 3.642284e+04 3.642284e+04 3.782306e+05 4.064849e+05 3.365481e+05 1.309629e+05 1.309629e+05 1.309629e+05 1.408396e+05 1.408396e+05 1.642550e+05 1.642550e+05 1.692909e+05 1.121034e+05 1.121034e+05 1.109645e+05 1.018578e+05 1.806273e+05 1.806273e+05 1.806273e+05 1.717343e+05 1.717343e+05 1.717343e+05 2.114376e+05 2.114376e+05 2.114376e+05 4.914368e+04 5.660569e+04 1.452268e+05 2.144358e+05 2.144358e+05 2.144358e+05 2.049520e+05 2.477754e+05 2.477754e+05 2.477754e+05 2.528710e+05 2.528710e+05 2.528710e+05 2.463981e+05 -4.184876e+04 -4.184876e+04 -4.184876e+04 5.724469e+04 5.724469e+04 5.724469e+04 2.007812e+05 2.007812e+05 2.007812e+05 3.789854e+05 3.789854e+05 3.772637e+05 -9.476150e+04 -3.829323e+04 -3.829323e+04 4.647369e+05 4.647369e+05 4.647369e+05 4.936604e+05 4.936604e+05 1.442479e+05 1.442479e+05 -2.575192e+05 -2.366002e+05 -2.410405e+05 5.353705e+05 5.353705e+05 5.353705e+05 5.214911e+05 -9.859531e+03 -9.859531e+03 -9.859531e+03 1.665155e+05 1.652012e+05 1.599259e+05 5.179479e+04 5.179479e+04 5.179479e+04 -1.078140e+05 -1.078140e+05 -1.078140e+05 -1.099686e+05 -1.147786e+05 1.878303e+05 1.878303e+05 1.878303e+05 6.563644e+05 6.563644e+05 6.563644e+05 6.517884e+05 3.273127e+05 3.273127e+05 3.273127e+05 3.206785e+05 6.845252e+05 6.845252e+05 6.845252e+05 2.818752e+05 9.083937e+04 9.083937e+04 1.087625e+05 1.087625e+05 1.087625e+05 1.069632e+05 1.092462e+05 -4.616967e+05 -4.616967e+05 -4.679576e+05 -2.350854e+05 -1.782690e+05 4.693102e+05 4.693102e+05 -6.068443e+04 -6.068443e+04 -6.068443e+04 -6.450797e+04 -1.236991e+05 -1.236991e+05 -1.236991e+05 -1.695941e+05 3.855390e+05 3.693365e+05 3.693365e+05 2.633181e+04 2.633181e+04 2.633181e+04 2.580569e+04 -4.592412e+04 5.644519e+04 5.644519e+04 5.899754e+04 5.164827e+05 5.164827e+05 5.164827e+05 7.329648e+05 7.329648e+05 6.871245e+05 6.871245e+05 6.871245e+05 7.210401e+05 7.634804e+05 7.634804e+05 7.634804e+05 7.581712e+05 7.581712e+05 7.855846e+05 6.396919e+05 6.396919e+05 9.978860e+04 -4.422947e+04 -4.422947e+04 -4.558164e+04 2.958809e+04 8.021275e+05 7.560289e+05 8.021275e+05 8.021275e+05 4.028971e+05 4.028971e+05 4.028971e+05 3.787762e+05 3.787762e+05 4.863329e+05 4.863329e+05 5.114024e+05 5.114024e+05 4.246708e+05 4.246708e+05 4.246708e+05 4.434303e+05 4.434303e+05 1.430020e+05 1.430020e+05 1.430020e+05 1.487610e+05 1.487610e+05 5.446846e+05 5.446846e+05 5.446846e+05 5.112781e+05 5.112781e+05 2.734710e+05 2.734710e+05 2.734710e+05 1.608788e+05 -2.113663e+05 -2.113663e+05 -2.113663e+05 -1.913324e+05 -1.913324e+05 -1.157631e+05 -1.157631e+05 -1.157631e+05 -9.829202e+04 -9.829202e+04 -1.616974e+04 -1.616974e+04 -1.616974e+04 9.931616e+03 9.931616e+03 4.351872e+05 4.351872e+05 4.351872e+05 1.733785e+05 1.733785e+05 1.733785e+05 1.819488e+05 1.819488e+05 3.065578e+04 5.343538e+04 -1.551132e+04 -1.551132e+04 -1.551132e+04 -2.498569e+04 1.606109e+05 1.606109e+05 1.577177e+05 1.030215e+05 1.030215e+05 1.032999e+05 1.032999e+05 1.116917e+05 1.180223e+05 2.162028e+05 1.922766e+05 2.162028e+05 2.162028e+05 1.515102e+05 1.515102e+05 1.237710e+05 2.494264e+05 2.577401e+05 4.869559e+05 4.869559e+05 4.869559e+05 4.793653e+05 4.878120e+05 2.591955e+04 2.591955e+04 2.591955e+04 1.954074e+04 -1.138629e+05 -8.668129e+04 -4.481660e+05 -4.481660e+05 -4.481660e+05 -3.949960e+05 4.290080e+05 4.435198e+05 4.479991e+05 1.100671e+05 1.100671e+05 1.078513e+05 -1.205130e+05 -1.341665e+05 -1.341665e+05 -1.367943e+05 -2.060132e+05 -4.430938e+04 -6.567932e+04 -8.592372e+04 1.070470e+04 1.070470e+04 1.070470e+04 1.011916e+04 -8.184528e+04 -8.184528e+04 -8.184528e+04 -3.341463e+04 1.137717e+05 -6.662579e+03 -9.430821e+04 -9.430821e+04 3.137403e+05 3.137403e+05 3.137403e+05 5.199117e+03 6.978875e+05 6.978875e+05 3.871925e+04 3.871925e+04 3.871925e+04 3.844865e+05 -5.539001e+04 -5.539001e+04 2.093507e+04 -7.106184e+02 -7.106184e+02 -7.106184e+02 -3.821869e+03 -3.887977e+04 -4.856999e+04 -4.856999e+04 -8.101268e+04 -8.263052e+03 1.290069e+05 1.290069e+05 -9.261872e+04 -9.261872e+04 -9.261872e+04 -4.374573e+04 6.327916e+05 6.263770e+05 6.263770e+05 3.464443e+05 -1.015927e+05 -1.015927e+05 -1.135240e+05 6.736616e+05 6.736616e+05 6.244493e+05 4.540516e+05 -2.914643e+04 -3.801125e+04 -3.801125e+04 8.319435e+05 8.319435e+05 -4.196191e+04 7.294647e+05 7.294647e+05 -2.204356e+04 -2.204356e+04 -2.204356e+04 -2.250795e+04 -7.960352e+04 -7.960352e+04 -4.068223e+04 -4.068223e+04 -1.548795e+05 -1.722241e+05 2.612624e+05 2.632924e+05 -6.687782e+03 -7.679246e+04 -7.679246e+04 1.516379e+05 1.541746e+05 1.541746e+05 -4.736623e+04 -4.736623e+04 -1.554416e+05 -1.554416e+05 5.619335e+05 1.620481e+05 8.395512e+05 8.395512e+05 8.369815e+05 8.577473e+05 8.577473e+05 6.320755e+05 5.999908e+05 3.902328e+05 3.902328e+05 3.902328e+05 7.493757e+05 7.493757e+05 7.493757e+05 7.495069e+05 -3.012599e+04 -3.012599e+04 4.199964e+05 -1.770177e+05 -1.770177e+05 6.480489e+02 -7.065611e+04 4.745755e+04 4.745755e+04 4.745755e+04 -2.929164e+04 -2.929164e+04 6.122483e+05 5.802386e+05 5.802386e+05 2.349939e+05 2.356754e+05 2.057001e+05 2.074315e+05 -2.782191e+05 8.033904e+05 8.033904e+05 -7.638807e+04 -7.638807e+04 -7.638807e+04 -8.686809e+04 7.438194e+05 -3.640015e+04 -1.089572e+04 -1.089572e+04 -1.348230e+04 -4.258667e+04 -4.258667e+04 -1.426010e+05 -1.426010e+05 -5.130150e+04 3.658600e+05 3.534496e+05 3.534496e+05 6.267965e+04 8.175046e+05 8.175046e+05 7.791802e+05 7.791802e+05 8.231332e+04 8.231332e+04 8.231332e+04 -8.461615e+04 -8.461615e+04 -8.461615e+04 9.424877e+04 9.424877e+04 6.211602e+05 8.119289e+05 7.968664e+05 7.479614e+05 6.072072e+05 7.831320e+05 -1.831648e+05 2.439823e+05 2.486714e+05 -9.180449e+04 -9.180449e+04 4.795354e+05 4.148841e+05 -5.924734e+04 -7.747960e+04 7.365890e+04 7.365890e+04 8.917671e+05 8.513572e+05 8.256771e+05 8.256771e+05 8.256771e+05 8.583439e+05 6.613014e+05 6.247606e+05 7.033887e+05 6.978584e+05 2.250030e+05 2.250030e+05 2.201230e+05 5.912833e+05 -1.511042e+05 -1.154217e+05 4.671333e+05 4.024193e+05 4.024193e+05 4.024193e+05 5.119772e+04 -1.942961e+04 -1.942961e+04 -1.942961e+04 8.417735e+05 6.792650e+05 7.597539e+05 7.112639e+05 -4.842983e+04 3.513452e+05 7.349030e+05 7.814935e+05 -2.492795e+05 -3.459185e+05 -3.459185e+05 2.930481e+05 3.864064e+05 -1.602952e+05 -1.969954e+05 6.054035e+05 5.643439e+05 5.643439e+05 -1.872522e+05 -1.872522e+05 -2.060421e+05 -2.060421e+05 -3.085808e+04 4.753223e+05 1.473752e+05 -2.757594e+05 7.104081e+05 6.874058e+05 4.558070e+04 1.384307e+05 1.359588e+05 1.359588e+05 6.559685e+05 6.559685e+05 6.247187e+05 6.247187e+05 3.557033e+04 4.238379e+04 -7.233051e+04 -7.233051e+04 -6.199803e+04 4.887283e+03 4.887283e+03 -1.202592e+03 -1.202592e+03 -5.097186e+04 -5.097186e+04 -4.378010e+05 6.945770e+05 6.945770e+05 5.674948e+05 5.674948e+05 5.674948e+05 5.132339e+05 -1.705003e+05 -1.705003e+05 -1.294195e+05 -1.294195e+05 -3.029969e+05 -2.879749e+05 5.731627e+05 7.241808e+05 -9.625244e+04 -3.265599e+05 -3.265599e+05 7.776960e+04 7.776960e+04 8.618350e+04 -3.108463e+05 -3.108463e+05 -7.851056e+04 -7.851056e+04 6.661904e+05 6.661904e+05 2.397421e+05 8.105704e+05 3.610179e+05 3.610179e+05 3.561456e+05 1.485433e+05 1.536926e+05 -1.588635e+05 -1.938713e+05 -3.994930e+04 7.737999e+05 -4.283513e+05 -8.752583e+03 -8.752583e+03 -8.752583e+03 1.202529e+05 1.202529e+05 1.202529e+05 1.955871e+05 2.367759e+04 2.367759e+04 2.367759e+04 1.576566e+04 8.111597e+05 7.776865e+05 4.637062e+05 4.367256e+05 4.367256e+05 9.665514e+04 9.665514e+04 9.665514e+04 4.853297e+05 -1.813032e+05 7.380490e+05 8.002136e+05 8.002136e+05 7.743395e+05 1.218029e+05 -9.669629e+04 -9.669629e+04 -1.038001e+05 -4.485220e+04 -4.485220e+04 7.246296e+05 -1.524427e+05 -3.785474e+04 -3.344451e+04 -9.949999e+04 2.163281e+05 2.226264e+05 7.270153e+05 5.456903e+04 5.456903e+04 5.456903e+04 -8.668984e+04 -8.668984e+04 5.480780e+05 5.190160e+05 5.190160e+05 6.570946e+05 6.400983e+05 -1.677934e+05 -1.673097e+05 6.538187e+05 6.538187e+05 6.538187e+05 6.436775e+05 -1.616847e+05 -1.616847e+05 -1.478529e+05 -3.167284e+05 -3.167284e+05 2.460262e+05 2.460262e+05 2.460262e+05 2.508437e+05 -4.215023e+04 6.565962e+05 6.565962e+05 6.565962e+05 6.653464e+05 7.152680e+05 -1.303620e+05 -1.303620e+05 -1.327541e+05 -1.327541e+05 -1.821277e+05 5.462977e+05 5.462977e+05 8.509809e+04 7.897664e+04 4.795741e+05 4.795741e+05 -1.343605e+05 -1.389853e+05 6.374499e+05 7.560289e+05 7.389394e+05 -5.490815e+04 -5.476933e+04 7.077570e+05 2.504735e+04 2.504735e+04 2.384076e+04 2.384076e+04 -5.899352e+04 5.696995e+04 6.425787e+04 4.075252e+05 -2.593970e+04 -1.486281e+05 -1.333651e+05 5.337784e+05 5.337784e+05 7.455349e+05 7.455349e+05 7.455349e+05 7.146012e+05 -2.806972e+05 -2.806972e+05 -3.093428e+05 2.405340e+05 2.347008e+05 3.820057e+05 -3.841225e+05 -4.268208e+05 -4.268208e+05 -4.268208e+05 -4.030022e+05 5.140307e+03 8.896996e+05 6.317820e+05 5.922623e+05 5.922623e+05 -2.358399e+05 -2.358399e+05 -2.358399e+05 -2.542696e+05 6.951366e+05 6.951366e+05 5.979098e+05 5.979098e+05 5.826586e+05 4.389767e+05 3.283548e+05 6.988699e+05 -2.199350e+04 -2.794588e+04 7.051305e+05 6.973092e+05 1.552281e+05 3.502753e+05 3.502753e+05 3.502753e+05 3.604338e+05 -2.234846e+05 3.217611e+04 3.244205e+04 -3.131579e+05 -2.937739e+05 1.093162e+05 1.136116e+05 -9.528600e+04 -9.528600e+04 3.923383e+05 -6.365826e+04 -6.365826e+04 -5.588729e+04 -7.961795e+04 -7.961795e+04 9.680704e+03 -1.992969e+05 -1.992969e+05 -2.174098e+05 5.888343e+05 6.747050e+05 6.747050e+05 -9.307360e+03 -8.242824e+03 -8.242824e+03 2.706019e+05 -2.511496e+05 -3.025056e+05 -2.711910e+05 5.321566e+05 5.321566e+05 1.351689e+05 -4.360933e+04 2.639986e+05 2.569226e+05 2.330985e+05 5.305133e+05 5.305133e+05 3.634839e+05 3.634839e+05 3.634839e+05 2.236298e+05 2.224933e+05 4.561576e+05 4.513560e+05 4.513560e+05 1.388586e+05 1.315910e+05 1.315910e+05 2.965001e+05 2.049089e+05 2.125885e+05 6.291227e+05 6.161100e+05 6.161100e+05 6.161100e+05 6.367175e+05 -2.605947e+05 -1.264828e+05 2.397194e+03 7.925524e+03 -9.394499e+04 -9.394499e+04 -9.394499e+04 6.156923e+04 6.156923e+04 6.156923e+04 6.368992e+04 7.263126e+04 -2.295668e+05 -1.704312e+05 -1.654778e+05 4.069713e+04 4.069713e+04 -1.955322e+05 -1.662054e+05 -1.639643e+05 -1.639643e+05 2.382614e+04 -6.532497e+04 -6.532497e+04 -6.937226e+04 4.119941e+05 4.119941e+05 4.000402e+05 -2.188720e+04 -2.188720e+04 1.698154e+05 -1.290111e+05 -1.290111e+05 -1.365494e+05 -1.365494e+05 -2.179334e+05 -2.179334e+05 -2.179334e+05 5.998070e+05 5.686834e+05 5.686834e+05 -2.380108e+05 -2.380108e+05 -2.380108e+05 -2.900153e+05 -2.748022e+05 5.091073e+04 6.031153e+05 6.031153e+05 5.724352e+05 5.508469e+05 5.508469e+05 5.508469e+05 3.139089e+05 3.139089e+05 3.103808e+05 2.805075e+05 2.805075e+05 2.881138e+05 -2.418593e+05 -1.934784e+05 -1.934784e+05 6.574844e+05 6.231875e+05 -3.577668e+04 -3.577668e+04 -3.577668e+04 6.962742e+05 -1.524460e+05 -1.524460e+05 -1.471908e+05 -1.471908e+05 -2.248041e+05 -2.248041e+05 -2.085162e+05 -2.085162e+05 -2.268313e+05 -2.268313e+05 -2.713595e+05 2.432794e+05 2.400352e+05 -2.985831e+04 4.919239e+05 4.919239e+05 4.919239e+05 6.205675e+04 3.530265e+05 -2.019252e+05 3.149764e+05 6.621999e+05 -8.599198e+04 3.789797e+05 3.789797e+05 6.685319e+05 6.292664e+05 6.292664e+05 2.661362e+05 2.669259e+05 6.171171e+05 6.171171e+05 5.798129e+05 -1.652828e+05 -1.652828e+05 8.085644e+04 1.322342e+05 5.513725e+05 1.924421e+05 6.545289e+05 6.092694e+05 6.092694e+05 -4.376720e+04 3.909753e+04 1.588723e+04 5.991614e+05 6.218089e+05 -2.083090e+05 -2.083090e+05 -8.174551e+04 -8.174551e+04 1.459674e+05 -2.179586e+05 -2.193913e+05 -2.193913e+05 5.505574e+05 -5.410103e+04 -4.337278e+04 1.527703e+04 1.527703e+04 1.527703e+04 6.549081e+03 6.549081e+03 3.467901e+05 5.136218e+05 5.887745e+05 4.261269e+05 4.261269e+05 2.177919e+05 2.177919e+05 2.193879e+05 2.048443e+05 2.048443e+05 6.055944e+05 6.055944e+05 6.055944e+05 5.649268e+05 5.649268e+05 2.815327e+05 2.815327e+05 2.910919e+05 3.441809e+05 3.194196e+05 3.194196e+05 3.194196e+05 -1.214000e+05 3.659099e+05 3.499050e+05 3.499050e+05 -1.160819e+05 -1.094445e+05 -2.366002e+05 -2.081872e+05 5.538991e+05 2.657481e+05 2.542920e+05 6.231875e+05 4.360045e+05 4.360045e+05 4.119328e+05 4.119328e+05 4.584660e+05 4.582632e+05 5.520774e+05 -1.878488e+05 -1.326142e+05 -1.326142e+05 -1.343360e+05 -2.259211e+05 4.831735e+05 -2.338655e+05 7.157785e+04 -1.042736e+05 5.834689e+05 5.252755e+05 5.252755e+05 5.099691e+05 5.099691e+05 4.348919e+03 1.207666e+05 1.207666e+05 1.207666e+05 -3.213878e+04 4.685230e+05 1.665048e+05 -1.695833e+05 -1.725578e+05 -5.898235e+04 -2.177458e+05 -1.452004e+05 -1.606584e+05 -1.892350e+05 -1.892350e+05 -1.892350e+05 3.635234e+05 -1.198588e+04 -2.164409e+05 4.149649e+05 4.149649e+05 4.014895e+05 2.132648e+05 7.386248e+04 7.386248e+04 5.101529e+05 2.973679e+05 3.031229e+05 -2.065168e+05 2.036220e+05 2.036220e+05 2.196393e+05 -2.310955e+05 -1.883501e+05 -1.883501e+05 -1.989278e+05 1.260225e+05 1.260225e+05 1.260225e+05 2.385331e+05 2.666542e+04 1.757014e+05 9.093688e+03 -2.132044e+02 -2.132044e+02 -3.276872e+04 -9.618004e+04 3.543711e+05 3.543711e+05 4.466946e+05 -5.167617e+04 -5.167617e+04 -5.167617e+04 -5.630229e+04 5.438753e+05 2.620532e+05 5.178452e+05 4.806227e+05 1.027236e+05 3.295834e+05 3.350985e+05 5.131260e+05 2.490238e+05 2.463279e+05 -2.082831e+05 2.394749e+05 4.164048e+05 4.164048e+05 4.164048e+05 5.784759e+05 5.564226e+05 4.041268e+05 4.815772e+05 5.784759e+05 -1.698603e+05 -1.901810e+05 -8.212921e+04 2.947363e+05 2.723160e+05 1.903915e+05 -1.470155e+05 -1.470155e+05 -1.470155e+05 -4.081011e+04 4.841877e+05 4.841877e+05 5.138458e+05 5.138458e+05 2.211912e+05 -1.736908e+05 4.652598e+05 8.710699e+04 8.710699e+04 8.710699e+04 3.966858e+04 4.516866e+05 4.516866e+05 8.048737e+04 1.774460e+05 3.005307e+05 -1.443805e+05 4.110910e+05 4.110910e+05 4.110910e+05 -1.578490e+05 -1.578490e+05 -1.578490e+05 5.735235e+05 1.725370e+05 4.834496e+05 4.834496e+05 -1.767892e+05 -1.767892e+05 -1.767892e+05 -1.695647e+05 2.351487e+04 2.351487e+04 2.351487e+04 3.599363e+05 3.599363e+05 3.599363e+05 3.962480e+05 1.060690e+05 1.035749e+05 1.239937e+05 1.239937e+05 1.239937e+05 5.273246e+04 5.669449e+04 5.669449e+04 3.531608e+05 3.258917e+05 5.572146e+05 1.002577e+05 9.467485e+04 -1.267886e+05 -9.812923e+04 2.434184e+05 -5.556520e+04 -1.349050e+05 -1.349050e+05 -1.441848e+05 4.298521e+05 2.189366e+05 -3.392718e+04 -4.039546e+04 7.438604e+04 2.409483e+05 5.145197e+03 5.145197e+03 3.294419e+05 3.537856e+05 3.408133e+05 -6.772233e+04 1.702592e+05 4.376013e+05 -1.196739e+05 -1.196739e+05 -1.551063e+05 -1.551063e+05 3.690670e+05 3.690670e+05 3.690670e+05 3.473814e+05 3.473814e+05 2.362833e+05 3.912690e+05 3.830711e+05 3.830711e+05 -5.777958e+04 1.989423e+05 2.143395e+05 2.712553e+05 2.712553e+05 2.925173e+05 3.544177e+05 -1.171680e+05 -1.171680e+05 3.327633e+05 3.248797e+05 -1.267886e+05 -1.267886e+05 -3.395573e+04 -3.054206e+03 -3.054206e+03 -3.054206e+03 1.462584e+05 -7.403174e+04 -7.034645e+04 8.371225e+04 8.371225e+04 8.371225e+04 1.162685e+05 1.285447e+05 2.171926e+05 1.076675e+05 -4.150301e+04 2.698683e+05 2.698683e+05 2.698683e+05 2.578438e+05 -1.305467e+04 3.374229e+05 3.374229e+05 3.374229e+05 3.005841e+05 -1.019709e+05 3.145326e+05 3.145326e+05 1.510316e+05 -1.047689e+05 -1.047689e+05 -1.047689e+05 -1.076366e+05 -1.076366e+05 4.104132e+05 3.805482e+05 3.805482e+05 -9.074951e+04 -1.695941e+04 -1.695941e+04 2.503043e+05 -8.477414e+04 -8.477414e+04 -8.477414e+04 -6.430535e+04 -6.430535e+04 -6.430535e+04 1.206980e+05 1.206980e+05 1.304909e+05 4.140350e+04 -9.031990e+04 -9.031990e+04 1.143183e+05 1.812531e+05 1.812531e+05 1.647586e+05 1.647586e+05 3.074655e+05 1.325299e+04 1.936480e+04 1.936480e+04 7.598390e+03 7.598390e+03 8.002634e+04 8.002634e+04 1.002696e+05 2.285439e+05 2.285439e+05 2.130698e+05 2.130698e+05 4.791858e+04 2.344322e+05 3.473129e+05 3.386283e+05 3.386283e+05 2.179697e+05 1.561922e+05 7.224791e+04 3.181989e+05 3.181989e+05 2.327326e+05 3.365481e+05 3.365481e+05 -8.211859e+04 -8.211859e+04 2.549316e+05 2.964920e+05 2.964920e+05 2.964920e+05 2.762659e+05 2.762659e+05 3.127819e+05 1.837889e+05 1.837889e+05 2.810544e+05 2.810544e+05 2.653726e+05 7.204085e+04 1.471818e+05 -2.367034e+04 -3.234162e+04 3.061574e+05 3.061574e+05 -8.905315e+03 -8.905315e+03 1.181513e+05 1.181513e+05 -6.676410e+04 1.634691e+05 1.634691e+05 1.476070e+05 4.544696e+04 4.544696e+04 2.470707e+05 2.470707e+05 2.305469e+05 1.883685e+05 1.883685e+05 8.021025e+04 8.021025e+04 1.350970e+05 1.350970e+05 1.056166e+05 1.081120e+05 1.081120e+05 1.275010e+04 1.100722e+04 6.838378e+04 1.805023e+05 1.818295e+05 2.862408e+05 2.807971e+05 2.460852e+05 2.460852e+05 2.834798e+05 3.745222e+04 3.745222e+04 1.707707e+04 2.058452e+05 2.799554e+05 2.982587e+05 2.982587e+05 1.029461e+05 1.029461e+05 2.516450e+05 2.764695e+05 7.139044e+04 7.139044e+04 2.355310e+05 2.355310e+05 -3.258058e+01 3.018026e+04 3.018026e+04 3.018026e+04 1.417375e+04 1.417375e+04 2.313776e+05 2.162950e+05 1.898561e+05 1.898561e+05 2.101535e+05 2.101535e+05 2.297588e+05 5.991433e+04 2.655718e+05 2.401491e+05 1.547712e+05 1.305978e+05 1.798034e+05 1.520299e+05 2.059810e+05 8.722314e+04 1.406953e+05 1.698428e+05 1.549238e+05 1.611664e+05 1.990862e+05 1.922766e+05 1.082619e+05 1.082619e+05 1.540821e+05 1.468804e+05 1.783316e+05 9.679490e+04 1.031517e+05 1.614316e+05 1.614316e+05 1.598454e+05 1.598454e+05 1.211566e+05 1.211566e+05 1.499363e+05 1.374850e+05 1.374850e+05 1.374850e+05 1.377260e+05 1.377260e+05 6.329047e+04 6.329047e+04 6.329047e+04 1.904925e+04 1.904925e+04 -4.769923e+04 -3.848161e+04 8.798219e+04 -4.769923e+04 -4.769923e+04 -5.734730e+04 -2.421136e+03 2.551084e+04 3.955021e+04 4.499897e+04 4.632565e+04 6.803869e+04 6.983310e+04 8.408218e+04 8.408218e+04 1.177425e+05 -6.435268e+04 8.798219e+04 2.770058e+05 2.175049e+05 1.496057e+05 2.767075e+05 2.767075e+05 2.477410e+05 2.454088e+05 2.477410e+05 1.204598e+05 2.319068e+05 1.332927e+05 9.443403e+04 9.691833e+04 9.691833e+04 1.402486e+05 8.917671e+05 8.917671e+05 8.896996e+05 8.886167e+05 8.851918e+05 8.824475e+05 8.748956e+05 8.703847e+05 8.653809e+05 8.590069e+05 8.539685e+05 8.480186e+05 8.414744e+05 8.356574e+05 8.307275e+05 8.214691e+05 8.166111e+05 8.096264e+05 8.069786e+05 8.005237e+05 7.956211e+05 7.878325e+05 7.798058e+05 7.715945e+05 7.609022e+05 7.567327e+05 7.489331e+05 7.421818e+05 7.330890e+05 7.243427e+05 7.181682e+05 7.085552e+05 6.993484e+05 6.890368e+05 6.794394e+05 6.732612e+05 6.654049e+05 6.554565e+05 6.486111e+05 6.414668e+05 6.320755e+05 6.215875e+05 6.122483e+05 6.008035e+05 5.925326e+05 5.835076e+05 5.717793e+05 5.595683e+05 5.492866e+05 5.389176e+05 5.280469e+05 5.173267e+05 5.073677e+05 4.955768e+05 4.820853e+05 4.722411e+05 4.585862e+05 4.491045e+05 4.383704e+05 4.275961e+05 4.172126e+05 4.057405e+05 3.946148e+05 3.855390e+05 3.764609e+05 3.658600e+05 3.541873e+05 3.448322e+05 3.342443e+05 3.237442e+05 3.118067e+05 3.035670e+05 2.934545e+05 2.834621e+05 2.726735e+05 2.643880e+05 2.539832e+05 2.442554e+05 2.349939e+05 2.254451e+05 2.146482e+05 2.057001e+05 1.960404e+05 1.875619e+05 1.784229e+05 1.690670e+05 1.599992e+05 1.516379e+05 1.419467e+05 1.337897e+05 1.257945e+05 1.176795e+05 1.096126e+05 1.021588e+05 9.453072e+04 8.697910e+04 7.997091e+04 7.358230e+04 6.649749e+04 5.853437e+04 5.225316e+04 4.620620e+04 4.084050e+04 3.455689e+04 2.888752e+04 2.356344e+04 1.910844e+04 1.439901e+04 9.564099e+03 5.804190e+03 1.625328e+03 -3.488211e+02 -5.545695e+03 -1.107002e+04 -1.451099e+04 -1.689642e+04 -1.916488e+04 -2.254664e+04 -2.542910e+04 -2.914643e+04 -2.986104e+04 -3.085355e+04 -2.811906e+04 -3.108429e+04 -3.310576e+04 -3.278595e+04 -3.265642e+04 -2.834431e+04 -2.399515e+04 -3.053987e+04 -3.262646e+04 -3.086336e+04 -3.380183e+04 -2.838306e+04 -3.483075e+04 -3.469817e+04 -2.852179e+04 -3.190064e+04 -2.595386e+04 -2.165421e+04 -2.673001e+04 -2.500148e+04 -2.100993e+04 -1.392314e+04 -6.687782e+03 -1.998406e+04 -6.662579e+03 -8.270243e+03 6.063083e+02 -1.247699e+04 -1.575222e+04 -9.406757e+03 -3.286629e+03 -1.907340e+04 -2.477041e+04 -2.126029e+02 -8.263052e+03 -1.141014e+04 -1.401741e+04 -1.553003e+04 -1.067999e+03 -1.537631e+04 -1.068846e+04 -4.253985e+01 2.485343e+02 -1.962223e+04 -2.368407e+04 -2.014328e+04 -3.166921e+03 -3.140848e+04 -2.662142e+04 -1.769377e+03 9.166877e+02 1.024302e+04 1.414537e+03 5.922278e+03 -2.111302e+04 -3.033164e+04 1.358652e+03 -7.400474e+02 -7.022141e+04 1.102418e+05 1.102418e+05 1.102418e+05 1.279264e+05 1.279264e+05 1.279264e+05 1.319140e+05 1.283719e+05 1.515102e+05 1.394191e+05 1.746723e+05 1.746723e+05 1.746723e+05 1.745947e+05 5.095034e+04 5.095034e+04 5.095034e+04 5.068219e+04 5.685059e+04 4.361585e+05 4.361585e+05 4.361585e+05 4.330314e+05 4.368010e+05 4.368010e+05 4.368010e+05 4.238398e+05 8.445680e+04 8.445680e+04 8.445680e+04 9.090309e+04 9.610903e+04 9.644143e+04 -1.222315e+05 -1.222315e+05 -1.222315e+05 -1.343077e+05 -1.343077e+05 4.688009e+05 4.688009e+05 4.688009e+05 4.568955e+05 -1.758747e+05 -1.758747e+05 -1.758747e+05 -1.995775e+05 -1.995775e+05 7.529974e+05 7.529974e+05 7.529974e+05 2.577196e+05 2.577196e+05 2.577196e+05 2.618113e+05 1.731216e+05 1.731216e+05 1.731216e+05 4.973603e+05 4.973603e+05 4.973603e+05 5.170030e+05 -4.231851e+04 -4.231851e+04 -7.059369e+04 -7.059369e+04 3.011497e+05 3.011497e+05 3.067285e+05 4.979574e+05 4.979574e+05 4.979574e+05 5.313760e+05 5.313760e+05 -3.298320e+05 -3.298320e+05 -3.298320e+05 -2.978373e+05 -2.978373e+05 7.613359e+04 7.613359e+04 7.613359e+04 6.732520e+04 6.732520e+04 4.545160e+05 4.545160e+05 2.911679e+05 2.911679e+05 2.911679e+05 2.896429e+05 1.804336e+05 1.804336e+05 1.804336e+05 1.759778e+05 1.752692e+05 3.303307e+05 3.303307e+05 3.303307e+05 2.750848e+05 2.750848e+05 2.766453e+05 6.732612e+05 6.582929e+05 6.582929e+05 1.024302e+04 -1.382319e+05 -1.382319e+05 1.724736e+05 -3.310576e+04 -3.801758e+04 1.645843e+05 1.255648e+05 1.255648e+05 1.255648e+05 1.320012e+05 7.204136e+04 1.261176e+05 1.261176e+05 1.261176e+05 1.372552e+05 1.372552e+05 4.307517e+04 4.307517e+04 4.307517e+04 5.172696e+04 -2.723583e+04 -2.723583e+04 -2.723583e+04 -2.922819e+04 4.175865e+05 4.125356e+05 3.995566e+05 4.463996e+05 4.463996e+05 1.457540e+05 1.457540e+05 1.457540e+05 1.517685e+05 3.115669e+05 3.115669e+05 3.115669e+05 3.186493e+05 3.186493e+05 3.093042e+05 -6.748922e+04 -6.748922e+04 -6.748922e+04 -7.194948e+04 -3.099297e+04 -3.099297e+04 -3.099297e+04 -2.725012e+04 -1.810954e+04 2.532758e+05 2.532758e+05 2.532758e+05 2.534833e+05 -2.082831e+05 -2.410405e+05 3.765636e+04 3.765636e+04 3.765636e+04 4.477927e+04 -1.151659e+05 -1.151659e+05 -1.151659e+05 -1.106916e+05 3.814967e+05 3.814967e+05 3.814967e+05 3.965570e+05 3.965570e+05 -1.642026e+05 -1.642026e+05 -1.642026e+05 -1.508182e+05 4.258949e+05 4.258949e+05 4.258949e+05 4.127468e+05 5.458238e+05 5.458238e+05 5.458238e+05 5.545939e+05 -5.133759e+04 -5.133759e+04 -4.317429e+04 1.852499e+05 1.852499e+05 2.033439e+05 2.033439e+05 2.033439e+05 1.398849e+05 1.398849e+05 1.398849e+05 1.371133e+05 -1.535268e+05 -1.535268e+05 -1.535268e+05 -1.722430e+05 -1.722430e+05 7.241794e+05 7.241794e+05 7.241794e+05 7.053205e+05 7.053205e+05 1.898857e+05 4.406079e+05 4.406079e+05 4.465248e+05 -1.283085e+05 -1.283085e+05 -1.283085e+05 -1.610856e+05 -6.145496e+04 -6.145496e+04 -1.351201e+05 -1.351201e+05 6.264606e+05 6.264606e+05 6.289063e+05 5.344131e+05 5.344131e+05 -5.334723e+04 -5.334723e+04 