<?xml version="1.0"?>
 <VTKFile type="UnstructuredGrid" version="1.0" byte_order="LittleEndian" header_type="UInt64">
  <UnstructuredGrid>
    <FieldData>
     <DataArray type="Float64" Name="TimeValue" NumberOfTuples="1" format="ascii">
0.00031
     </DataArray>
    </FieldData>
   <Piece NumberOfPoints="3662" NumberOfCells="3444">
    <PointData>
     <DataArray type="Float64" Name="pointP" format="ascii">
9.061366e+05 9.060137e+05 9.070639e+05 9.060498e+05 9.058449e+05 9.068883e+05 9.066180e+05 9.040886e+05 9.023536e+05 8.999342e+05 8.956750e+05 8.907732e+05 8.854934e+05 8.779763e+05 8.749752e+05 8.685605e+05 8.615078e+05 8.575221e+05 8.551570e+05 8.488458e+05 8.452998e+05 8.390439e+05 8.316986e+05 8.282606e+05 8.194524e+05 8.202139e+05 8.068187e+05 8.046786e+05 7.975873e+05 7.948222e+05 7.933900e+05 7.880353e+05 7.843725e+05 7.787365e+05 7.723956e+05 7.620935e+05 7.580008e+05 7.485966e+05 7.358221e+05 7.301653e+05 7.241664e+05 7.161123e+05 7.066802e+05 6.964298e+05 6.908494e+05 6.841903e+05 6.724784e+05 6.602836e+05 6.531111e+05 6.436212e+05 6.315857e+05 6.218012e+05 6.100936e+05 5.969833e+05 5.862416e+05 5.758539e+05 5.639415e+05 5.550756e+05 5.434787e+05 5.350268e+05 5.248094e+05 5.166522e+05 5.047471e+05 4.930613e+05 4.782934e+05 4.713150e+05 4.582879e+05 4.492513e+05 4.395479e+05 4.285207e+05 4.174023e+05 4.080277e+05 3.980833e+05 3.887665e+05 3.782359e+05 3.689004e+05 3.583789e+05 3.469080e+05 3.352498e+05 3.246241e+05 3.154688e+05 3.056364e+05 2.944017e+05 2.855662e+05 2.762166e+05 2.666387e+05 2.564087e+05 2.467366e+05 2.372648e+05 2.279286e+05 2.179192e+05 2.077956e+05 1.993940e+05 1.887388e+05 1.801148e+05 1.713919e+05 1.611210e+05 1.526837e+05 1.445722e+05 1.363090e+05 1.278723e+05 1.196828e+05 1.120478e+05 1.033772e+05 9.643584e+04 8.764234e+04 8.037557e+04 7.368293e+04 6.666222e+04 6.083649e+04 5.520148e+04 4.820566e+04 4.238121e+04 3.669769e+04 3.074036e+04 2.667914e+04 2.034286e+04 1.480791e+04 1.068881e+04 6.457933e+03 1.869035e+03 -3.811562e+03 -8.313284e+03 -8.313284e+03 1.216749e+05 1.460501e+05 1.575646e+05 1.588041e+05 1.618717e+05 1.665608e+05 1.703482e+05 1.703482e+05 1.709021e+05 1.726682e+05 1.741364e+05 1.741364e+05 1.787236e+05 1.787236e+05 1.843014e+05 1.871601e+05 1.882818e+05 1.922323e+05 1.964368e+05 2.071062e+05 2.071062e+05 2.193376e+05 2.193376e+05 2.263202e+05 2.412860e+05 2.448416e+05 2.543747e+05 2.591472e+05 2.728262e+05 2.825150e+05 2.918106e+05 3.069749e+05 3.115583e+05 3.280464e+05 3.449692e+05 3.583582e+05 3.704620e+05 3.704620e+05 3.826268e+05 4.076626e+05 4.076626e+05 4.358409e+05 4.457907e+05 4.457907e+05 4.692028e+05 4.957352e+05 4.957352e+05 5.252715e+05 5.453795e+05 5.822383e+05 5.822383e+05 6.110313e+05 6.754583e+05 7.203107e+05 8.065846e+05 8.415004e+05 1.197822e+05 2.163359e+05 2.163359e+05 2.163359e+05 2.219120e+05 1.850835e+05 1.850835e+05 1.850835e+05 1.925453e+05 1.925453e+05 2.310446e+05 2.310446e+05 2.310446e+05 2.330927e+05 2.294142e+05 1.062193e+05 1.970180e+05 1.970180e+05 1.911956e+05 2.183250e+05 2.183250e+05 2.183250e+05 2.139772e+05 2.102603e+05 4.285783e+05 4.285783e+05 4.285783e+05 4.158491e+05 1.427384e+05 1.427384e+05 1.427384e+05 1.391026e+05 1.352322e+05 1.352322e+05 2.100611e+05 2.100611e+05 1.850401e+05 1.811525e+05 1.197822e+05 1.197822e+05 1.620938e+05 1.620938e+05 1.620938e+05 1.595365e+05 1.539102e+05 1.539102e+05 1.580224e+05 1.977125e+05 1.977125e+05 1.977125e+05 1.983097e+05 1.913550e+05 2.074661e+05 2.068892e+05 1.570544e+05 1.570544e+05 1.570544e+05 1.484305e+05 7.894097e+04 5.770710e+04 4.033028e+04 5.770710e+04 3.241297e+05 3.241297e+05 3.241297e+05 3.798932e+05 3.798932e+05 3.798932e+05 3.659965e+05 1.375380e+04 5.909159e+03 1.375380e+04 1.375380e+04 3.141396e+05 3.141396e+05 3.141396e+05 3.156794e+05 4.817149e+05 4.817149e+05 4.817149e+05 4.686376e+05 5.680331e+05 5.680331e+05 5.680331e+05 5.385295e+05 5.385295e+05 4.653518e+04 4.653518e+04 4.653518e+04 4.280456e+04 1.006662e+05 1.006662e+05 1.006662e+05 9.231543e+04 9.231543e+04 6.489784e+05 6.489784e+05 6.489784e+05 6.656126e+05 2.441775e+05 2.441775e+05 2.441775e+05 2.419328e+05 2.419328e+05 -1.395539e+04 -1.021810e+04 6.578038e+05 6.578038e+05 6.578038e+05 6.375704e+05 7.157422e+05 7.157422e+05 7.157422e+05 7.465120e+05 7.465120e+05 3.283059e+05 3.283059e+05 3.283059e+05 3.202492e+05 7.025424e+05 7.025424e+05 7.025424e+05 6.775525e+05 3.669769e+04 4.719152e+05 4.719152e+05 4.719152e+05 3.733578e+05 3.733578e+05 3.733578e+05 3.735699e+05 2.806853e+05 2.806853e+05 2.806853e+05 2.836065e+05 1.526837e+05 1.172003e+05 1.172003e+05 1.172003e+05 1.139013e+05 2.203172e+05 2.203172e+05 2.203172e+05 2.174719e+05 2.174719e+05 -1.021810e+04 -1.021810e+04 -1.395539e+04 5.470517e+05 5.470517e+05 5.470517e+05 5.874114e+05 5.874114e+05 2.392275e+05 2.446148e+05 2.446148e+05 4.466935e+05 4.466935e+05 4.466935e+05 4.747299e+05 4.747299e+05 4.125188e+05 4.125188e+05 4.125188e+05 4.204024e+05 4.890107e+04 3.974320e+04 4.890107e+04 4.890107e+04 5.388749e+04 1.908397e+05 1.908397e+05 1.908397e+05 1.987564e+05 2.095633e+05 2.211818e+05 2.211818e+05 1.377659e+05 1.377659e+05 1.220727e+05 1.220727e+05 2.367695e+05 2.367695e+05 2.367695e+05 2.522530e+05 2.522530e+05 1.287070e+05 1.287070e+05 1.287070e+05 1.282305e+05 1.216939e+05 1.744501e+05 1.584070e+05 3.058164e+05 3.058164e+05 3.058164e+05 3.004612e+05 3.544869e+05 3.544869e+05 3.544869e+05 3.467275e+05 2.482552e+05 2.482552e+05 2.482552e+05 4.000269e+05 4.000269e+05 4.000269e+05 1.408235e+05 1.408235e+05 1.408235e+05 4.561510e+05 4.561510e+05 4.561510e+05 5.058680e+04 5.058680e+04 5.058680e+04 4.961582e+04 4.297207e+04 1.483884e+05 1.483884e+05 1.483884e+05 6.336077e+04 6.336077e+04 6.464917e+04 2.834585e+05 2.834585e+05 2.834585e+05 2.920072e+05 1.751653e+05 1.751653e+05 1.751653e+05 1.743237e+05 1.331436e+05 1.331436e+05 5.788087e+05 5.788087e+05 5.788087e+05 5.581655e+05 1.313040e+04 1.313040e+04 1.313040e+04 1.387066e+04 7.993310e+04 7.993310e+04 7.993310e+04 8.162752e+04 5.401385e+05 5.401385e+05 5.401385e+05 3.503185e+05 3.503185e+05 3.503185e+05 3.503115e+05 1.952820e+05 1.952820e+05 1.952820e+05 1.957990e+05 1.938540e+05 1.938540e+05 1.938540e+05 1.891618e+05 2.617380e+05 2.617380e+05 2.617380e+05 2.665477e+05 7.533547e+05 7.533547e+05 7.533547e+05 7.581441e+05 7.581441e+05 7.581441e+05 7.442526e+05 7.429960e+05 7.429960e+05 7.429960e+05 7.222583e+05 7.052841e+05 7.052841e+05 6.839223e+05 4.009692e+05 4.009692e+05 3.922317e+05 7.817974e+04 7.817974e+04 8.084453e+04 2.411206e+05 2.411206e+05 2.411206e+05 2.429295e+05 3.147742e+05 3.147742e+05 3.147742e+05 7.644976e+05 7.644976e+05 7.612477e+05 3.555116e+05 3.555116e+05 3.564553e+05 2.507141e+05 7.185254e+05 7.176436e+05 1.064603e+05 1.064603e+05 1.008574e+05 8.024866e+05 8.024866e+05 8.024866e+05 8.356610e+05 3.126543e+05 3.126543e+05 6.425745e+05 6.425745e+05 6.425745e+05 7.969067e+05 7.969067e+05 7.969067e+05 7.903053e+05 7.903053e+05 7.220341e+05 7.220341e+05 7.220341e+05 7.568463e+05 7.042272e+05 7.042272e+05 7.042272e+05 6.710558e+05 6.710558e+05 1.395020e+05 1.395020e+05 1.395020e+05 1.332440e+05 1.332440e+05 5.770250e+05 5.770250e+05 6.036042e+05 6.036042e+05 7.028492e+05 7.028492e+05 7.028492e+05 5.951832e+05 5.951832e+05 5.951832e+05 6.348254e+05 1.112911e+05 1.112911e+05 1.112911e+05 1.104081e+05 1.104081e+05 1.827892e+03 1.827892e+03 1.827892e+03 9.834689e+03 9.834689e+03 2.074138e+05 2.074138e+05 2.074138e+05 2.225652e+05 2.225652e+05 3.497497e+05 3.497497e+05 3.497497e+05 3.543159e+05 3.543159e+05 4.112991e+05 4.112991e+05 4.112991e+05 4.382490e+05 4.019023e+05 4.019023e+05 4.537216e+05 4.537216e+05 4.537216e+05 4.361418e+05 4.361418e+05 7.984736e+04 7.984736e+04 7.984736e+04 8.563673e+04 8.563673e+04 1.697151e+05 1.697151e+05 1.697151e+05 1.874790e+05 1.874790e+05 1.733019e+05 1.733019e+05 1.562745e+05 1.562745e+05 2.696463e+05 2.696463e+05 2.835318e+05 2.835318e+05 1.757468e+05 1.579138e+05 1.579138e+05 2.530569e+05 2.530569e+05 2.530569e+05 2.565103e+05 2.565103e+05 2.269592e+05 2.269592e+05 1.400700e+05 1.400700e+05 1.400700e+05 1.432441e+05 2.062798e+05 9.481666e+04 8.842703e+04 1.677254e+05 1.677254e+05 1.677254e+05 1.699085e+05 1.699085e+05 9.034489e+04 9.034489e+04 8.213189e+04 7.872038e+04 8.280104e+04 4.393310e+05 4.393310e+05 4.393310e+05 4.271727e+05 4.779687e+05 4.779687e+05 4.670373e+05 2.096004e+05 2.096004e+05 2.096004e+05 1.997997e+04 1.997997e+04 1.997997e+04 1.685629e+04 1.600090e+04 7.242487e+05 7.242487e+05 7.242487e+05 2.945976e+05 8.435725e+04 3.077894e+04 3.077894e+04 7.190013e+05 7.190013e+05 4.582879e+05 4.389935e+05 4.389935e+05 4.389935e+05 5.122867e+05 5.122867e+05 5.122867e+05 5.158378e+05 9.070639e+05 8.618390e+05 8.618390e+05 8.439996e+05 8.439996e+05 8.439996e+05 8.653177e+05 1.461044e+05 1.461044e+05 1.415097e+05 1.713919e+05 8.808515e+05 8.808515e+05 7.648742e+05 7.648742e+05 2.019261e+05 2.019261e+05 5.992092e+04 5.992092e+04 5.992092e+04 8.457249e+05 8.457249e+05 8.563927e+05 -1.047582e+04 -1.047582e+04 -6.459257e+03 7.404307e+05 8.286934e+05 8.256929e+05 8.256929e+05 8.216066e+05 4.168817e+05 4.168817e+05 4.168817e+05 4.320817e+05 6.218012e+05 6.119139e+05 9.060498e+05 8.437855e+05 6.767932e+05 6.767932e+05 6.113245e+05 6.113245e+05 6.113245e+05 6.293851e+05 1.898249e+05 1.898249e+05 1.806538e+05 1.806538e+05 3.697018e+05 8.081507e+05 8.081507e+05 7.790894e+05 4.839924e+05 4.839924e+05 4.839924e+05 4.820566e+04 9.040886e+05 8.247318e+05 5.468034e+05 5.468034e+05 5.468034e+05 5.376814e+05 4.993151e+04 4.993151e+04 4.910928e+04 5.251996e+05 5.251996e+05 5.423582e+05 9.781623e+04 9.781623e+04 2.245746e+05 2.245746e+05 8.729855e+05 7.358221e+05 7.124823e+05 5.181592e+05 8.212958e+05 8.212958e+05 6.266790e+05 7.147537e+04 6.805270e+04 6.805270e+04 1.633718e+05 1.633718e+05 1.571112e+05 1.571112e+05 7.819009e+05 7.819009e+05 4.621747e+05 8.229425e+05 4.103695e+05 4.103695e+05 4.067498e+05 5.604340e+05 5.604340e+05 5.604340e+05 8.497777e+05 8.497777e+05 2.773825e+05 3.093559e+04 3.093559e+04 5.922647e+05 5.753982e+05 6.709595e+05 3.562793e+05 -3.811562e+03 1.869035e+03 7.920104e+05 4.915917e+05 7.193355e+03 7.193355e+03 7.193355e+03 1.325111e+03 7.443223e+05 -7.209282e+03 7.563890e+04 7.563890e+04 6.602836e+05 5.925739e+05 1.245591e+05 1.245591e+05 7.787878e+05 7.787878e+05 2.301602e+04 2.301602e+04 1.649326e+05 4.491039e+05 4.491039e+05 1.031291e+05 1.640608e+05 2.701696e+05 2.751201e+05 4.459035e+05 4.459035e+05 4.138634e+05 4.138634e+05 8.846731e+04 2.653635e+05 8.283773e+05 5.207504e+03 2.600941e+05 6.047966e+05 7.006527e+05 1.311718e+03 1.161940e+05 1.236793e+05 1.560110e+05 5.806845e+05 5.620656e+05 8.305316e+05 8.305316e+05 4.441408e+05 4.157690e+05 6.971810e+05 1.380325e+05 6.842016e+05 6.842016e+05 6.150231e+05 6.150231e+05 6.150231e+05 2.307443e+05 4.174039e+05 6.055169e+04 7.052710e+05 7.071629e+05 6.915323e+05 6.915323e+05 6.915323e+05 5.232624e+05 5.232624e+05 5.232624e+05 5.477662e+05 8.261117e+05 4.075471e+05 3.986535e+05 2.433215e+05 2.433215e+05 2.433215e+05 5.843801e+05 5.843801e+05 5.843801e+05 6.199652e+05 4.974628e+05 4.974628e+05 5.057531e+05 3.721432e+05 3.572031e+05 8.900156e+04 9.251973e+04 7.319738e+04 7.319738e+04 7.033979e+04 3.044772e+04 3.044772e+04 2.834598e+04 2.834598e+04 1.438866e+05 7.931149e+05 2.109672e+05 8.043865e+05 7.728762e+05 7.752079e+05 7.752079e+05 7.449810e+05 7.449810e+05 6.546050e+05 6.628176e+05 3.321166e+05 7.123239e+05 7.123239e+05 5.954175e+05 5.954175e+05 6.841616e+05 2.894428e+05 2.894428e+05 2.894428e+05 6.694834e+05 2.898005e+05 4.143665e+04 4.143665e+04 4.143665e+04 4.432037e+04 4.432037e+04 5.224246e+05 5.165697e+05 7.501437e+05 7.501437e+05 7.894361e+05 1.698160e+04 2.071404e+04 4.812328e+05 4.812328e+05 4.184189e+05 5.368163e+05 7.157889e+05 5.765042e+04 5.765042e+04 5.765042e+04 6.522060e+04 7.732297e+05 7.732297e+05 7.504094e+05 7.690921e+05 7.179159e+05 7.179159e+05 1.656915e+05 1.656915e+05 1.656915e+05 1.854932e+05 7.967918e+04 1.848648e+05 1.764969e+05 1.764969e+05 3.845083e+05 3.189034e+05 3.189034e+05 3.309824e+05 5.970715e+05 5.713569e+05 5.713569e+05 7.014357e+05 7.014357e+05 -1.003289e+04 3.690999e+05 3.690999e+05 2.312616e+05 2.169486e+05 2.169486e+05 3.047220e+05 3.021178e+05 3.940846e+05 6.662775e+05 7.585558e+04 7.585558e+04 7.585558e+04 1.259025e+05 6.992908e+05 6.814117e+05 2.737058e+05 2.737058e+05 6.394288e+05 6.394288e+05 6.394288e+05 4.747541e+05 4.747541e+05 4.747541e+05 4.051468e+05 1.518421e+05 4.630199e+05 4.630199e+05 4.630199e+05 2.491719e+04 7.458963e+05 1.297858e+05 1.416736e+05 3.767539e+05 3.627149e+05 3.627149e+05 4.547407e+05 3.390457e+05 7.022313e+05 6.937936e+05 6.937936e+05 3.165304e+05 6.517343e+05 6.517343e+05 6.637063e+05 6.545469e+05 6.590607e+05 6.303818e+05 6.303818e+05 6.473405e+05 4.382883e+05 4.382883e+05 4.384512e+05 4.384512e+05 6.181519e+05 6.181519e+05 5.861415e+05 5.861415e+05 2.906604e+05 7.066489e+05 6.627290e+05 3.421707e+05 3.421707e+05 5.665712e+05 1.771463e+03 5.911839e+05 5.972134e+05 5.427696e+05 5.427696e+05 2.333744e+05 8.406260e+04 4.934036e+05 6.225593e+05 6.220993e+05 6.220993e+05 7.162707e+04 4.775786e+05 4.775786e+05 5.059647e+05 2.737418e+05 2.737418e+05 2.737418e+05 1.905873e+05 4.124367e+05 4.971977e+04 4.971977e+04 5.140690e+04 5.494572e+05 5.494572e+05 4.626826e+05 6.317973e+05 6.317973e+05 6.317973e+05 3.695942e+05 6.597615e+05 3.976668e+05 4.886103e+05 5.161740e+05 3.245570e+05 3.114343e+05 3.114343e+05 1.618576e+05 1.555227e+05 1.555227e+05 3.294506e+04 2.753950e+04 1.459284e+05 1.383097e+05 1.383097e+05 6.174079e+05 6.174079e+05 6.174079e+05 6.071720e+05 5.756976e+05 5.756976e+05 2.008440e+05 6.592812e+05 5.111668e+05 3.379806e+05 3.379806e+05 -7.265382e+03 -7.265382e+03 1.046412e+05 6.693395e+05 6.693395e+05 2.223209e+05 5.549590e+05 5.273128e+05 5.273128e+05 3.758529e+05 3.758529e+05 4.999550e+05 4.999550e+05 3.202686e+05 2.969666e+05 1.199330e+05 4.755305e+05 6.235526e+05 6.235526e+05 5.779401e+05 4.350517e+05 4.350517e+05 4.078070e+05 4.078070e+05 -7.581127e+03 2.935267e+05 1.662788e+05 1.744794e+05 3.420211e+05 3.317346e+05 1.023870e+05 3.981143e+05 3.981143e+05 3.981143e+05 5.914273e+05 5.914273e+05 6.199364e+05 1.169153e+05 1.169153e+05 1.169153e+05 7.156086e+04 7.156086e+04 5.066672e+05 5.066672e+05 5.251060e+05 6.023003e+05 5.858293e+05 2.655367e+05 5.429565e+05 5.429565e+05 5.294014e+05 3.198649e+05 5.628515e+05 5.628515e+05 3.866562e+05 1.542460e+05 1.542460e+05 1.542460e+05 1.404080e+05 4.478826e+05 8.500420e+03 1.969828e+04 3.351552e+04 5.444465e+04 4.327204e+05 4.336144e+05 1.927201e+05 6.248677e+05 5.464062e+05 5.464062e+05 5.464062e+05 5.560201e+05 1.804610e+05 5.793095e+05 5.152988e+05 5.155821e+05 3.742827e+05 3.742827e+05 3.742827e+05 2.503533e+05 2.503533e+05 2.503533e+05 2.794645e+05 2.794645e+05 5.250385e+05 5.217130e+05 5.217130e+05 5.217130e+05 2.738501e+05 4.622358e+05 4.622358e+05 4.622358e+05 3.071142e+05 3.882268e+05 3.882268e+05 3.882268e+05 9.827733e+04 9.827733e+04 9.827733e+04 4.756318e+04 1.662238e+05 5.024875e+05 5.024875e+05 4.649110e+05 5.666061e+05 2.193873e+05 2.002480e+05 2.002480e+05 2.002480e+05 3.330134e+05 4.906951e+05 4.856616e+05 1.109380e+05 1.013767e+05 3.040046e+05 1.747171e+04 4.987705e+05 4.987705e+05 5.305332e+05 5.395760e+05 4.294563e+05 2.827424e+05 5.058252e+05 1.940153e+05 1.940153e+05 2.658809e+05 3.158379e+05 2.418433e+05 2.418433e+05 2.366224e+05 2.197187e+05 8.003197e+04 8.003197e+04 3.669877e+05 3.669877e+05 3.777209e+05 4.099963e+05 4.871738e+05 4.766747e+05 2.843270e+05 2.967699e+05 4.233345e+05 5.444217e+05 5.219379e+05 9.343913e+04 3.774269e+04 3.774269e+04 3.774269e+04 4.821395e+05 4.821395e+05 3.445644e+05 3.445644e+05 3.334914e+05 4.596770e+05 4.104495e+05 3.913857e+05 3.913857e+05 1.516716e+05 1.516716e+05 1.641124e+05 1.260786e+05 1.260786e+05 2.536912e+05 1.188291e+05 1.065544e+05 2.039407e+05 1.764896e+05 2.126475e+05 2.293183e+05 3.987345e+05 3.421364e+05 3.421364e+05 3.421364e+05 3.693270e+05 4.605374e+05 4.962237e+05 2.772243e+05 4.496256e+05 3.330405e+05 3.330405e+05 3.504919e+05 3.046389e+05 3.046389e+05 2.924715e+05 2.924715e+05 2.273178e+05 2.338506e+05 4.307166e+04 4.976231e+04 2.813291e+05 1.417465e+05 3.215010e+05 3.215010e+05 2.493489e+05 2.493489e+05 2.493489e+05 2.358099e+05 4.413142e+05 4.254494e+05 2.605305e+05 9.703443e+04 2.042252e+05 3.638620e+05 2.727762e+05 2.727762e+05 3.220112e+05 3.220112e+05 1.222640e+05 1.222640e+05 3.010682e+05 4.388632e+05 3.999670e+05 3.999670e+05 3.818476e+05 6.053480e+04 3.187656e+05 4.153031e+05 2.097701e+05 2.097701e+05 1.979105e+05 2.504750e+05 2.611081e+05 3.815793e+05 3.815793e+05 2.116511e+05 2.116511e+05 1.435029e+05 1.258104e+05 1.258104e+05 2.325321e+05 3.579472e+05 1.022397e+05 3.021297e+05 3.419948e+05 3.716546e+05 6.389738e+04 1.379649e+05 3.113604e+05 3.113604e+05 3.387002e+05 7.465346e+04 5.388749e+04 1.105348e+05 1.105348e+05 1.105348e+05 1.274059e+05 2.323747e+05 2.323747e+05 3.318201e+05 3.318201e+05 3.109589e+05 3.109589e+05 2.500112e+05 8.685062e+04 7.756744e+04 2.707197e+05 2.707197e+05 2.707197e+05 2.671170e+05 1.875840e+05 1.875840e+05 2.708014e+05 2.708014e+05 2.340412e+05 2.340412e+05 2.286210e+05 5.273284e+04 5.273284e+04 5.273284e+04 4.083721e+04 2.175959e+05 2.000395e+05 2.000395e+05 9.659744e+04 1.209176e+05 5.770710e+04 6.801844e+04 8.346990e+04 8.346990e+04 2.043912e+05 2.844799e+05 1.483081e+05 1.515070e+05 2.019663e+05 1.352842e+05 1.352842e+05 2.390674e+05 2.347985e+05 2.906113e+05 1.045191e+05 1.045191e+05 8.916633e+04 2.659149e+05 2.659149e+05 2.423161e+05 1.018417e+05 8.949691e+04 8.949691e+04 8.949691e+04 7.513955e+04 2.270842e+05 8.087537e+04 1.158847e+05 1.793260e+05 8.087537e+04 1.276073e+05 9.479724e+04 9.479724e+04 1.662166e+05 1.600007e+05 1.216153e+05 1.156852e+05 1.615328e+05 1.615328e+05 1.615328e+05 1.164487e+05 1.712503e+05 1.712503e+05 1.712503e+05 1.521166e+05 1.521166e+05 1.397401e+05 1.235610e+05 1.598455e+05 1.327523e+05 1.282753e+05 1.504027e+05 1.371533e+05 1.445075e+05 1.586055e+05 1.586055e+05 1.213774e+05 1.213774e+05 1.297407e+05 1.607854e+05 1.607854e+05 1.607854e+05 1.645809e+05 1.645809e+05 1.494817e+05 1.494817e+05 1.494817e+05 3.455453e+05 3.554490e+05 3.554490e+05 3.554490e+05 1.062193e+05 1.062193e+05 3.599957e+05 3.599957e+05 3.599957e+05 3.707044e+05 3.707044e+05 1.264422e+05 1.144048e+05 3.395817e+05 3.395817e+05 3.303132e+05 1.052784e+05 3.780871e+05 3.694515e+05 3.721409e+05 9.481666e+04 1.103552e+05 1.136871e+05 1.717053e+05 1.717053e+05 1.741765e+05 5.876319e+05 2.541076e+05 2.541076e+05 2.541076e+05 2.349255e+05 3.085573e+05 3.085573e+05 3.085573e+05 3.148033e+05 3.081085e+05 3.081085e+05 4.618509e+05 2.696705e+05 2.696705e+05 2.696705e+05 2.678210e+05 1.923710e+05 5.454316e+05 5.454316e+05 5.454316e+05 3.054069e+05 4.397492e+05 4.397492e+05 3.994555e+05 3.994555e+05 3.994555e+05 2.886861e+05 2.886861e+05 2.886861e+05 3.205575e+05 2.910086e+05 2.910086e+05 2.953854e+05 3.389955e+05 2.511613e+05 2.947860e+05 2.826318e+05 2.776725e+05 2.429373e+05 2.291663e+05 2.628528e+05 2.183114e+05 2.024958e+05 2.161303e+05 2.161303e+05 1.974487e+05 1.974487e+05 1.974487e+05 1.703482e+05 4.965171e+05 3.295688e+05 3.295688e+05 2.916587e+05 2.742013e+05 2.460488e+05 2.460488e+05 4.355713e+05 4.355713e+05 3.836763e+05 3.836763e+05 3.388713e+05 3.193690e+05 2.624347e+05 2.284278e+05 1.989353e+05 1.989353e+05 1.730231e+05 1.819472e+05 4.993193e+05 4.993193e+05 2.407324e+05 2.034173e+05 2.034173e+05 2.180712e+05 2.049591e+05 1.949588e+05 1.843265e+05 1.843265e+05 1.843265e+05 1.862972e+05 1.862972e+05 1.809875e+05 1.788860e+05 1.788860e+05 1.788860e+05 2.005483e+05 2.005483e+05 1.141928e+05 1.749134e+05 1.749134e+05 1.770196e+05 1.738170e+05 1.738170e+05 1.187834e+05 1.308329e+05 1.192282e+05 1.723919e+05 1.723919e+05 1.723919e+05 1.692674e+05 1.813501e+05 1.461935e+05 1.708607e+05 3.705064e+05 1.639968e+05 1.579087e+05 1.671861e+05 1.665608e+05 3.823244e+05 4.174116e+05 4.174116e+05 4.453651e+05 4.453651e+05 4.772742e+05 4.772742e+05 4.772742e+05 5.055496e+05 5.235519e+05 5.235519e+05 5.235519e+05 6.367953e+05 1.711341e+05 1.749793e+05 1.749793e+05 1.749793e+05 1.788676e+05 1.844478e+05 1.878995e+05 2.378358e+05 1.828593e+05 1.888596e+05 1.915305e+05 1.900179e+05 1.973054e+05 1.945861e+05 1.874649e+05 1.759960e+05 1.825316e+05 1.770932e+05 1.770932e+05 1.729061e+05 1.729061e+05 1.828455e+05 1.767781e+05 1.711478e+05 1.694247e+05 3.907039e+05 4.097790e+05 5.033919e+05 7.241729e+05 9.061366e+05 9.072704e+05 9.086797e+05 9.086481e+05 9.076425e+05 9.051648e+05 9.038635e+05 9.005263e+05 8.986513e+05 8.975699e+05 8.657413e+05 1.470644e+05 1.470644e+05 1.594131e+05 1.594131e+05 1.624127e+05 1.668371e+05 1.697986e+05 1.697986e+05 1.697986e+05 1.701077e+05 1.656797e+05 1.656797e+05 1.585251e+05 1.585251e+05 1.585251e+05 1.966032e+05 1.966032e+05 1.966032e+05 1.998857e+05 1.998857e+05 1.559617e+05 1.559617e+05 1.559617e+05 1.600332e+05 1.470644e+05 1.464929e+05 1.464929e+05 1.693778e+05 1.788186e+05 1.788186e+05 7.988937e+05 7.988937e+05 7.988937e+05 8.491933e+05 8.491933e+05 1.579582e+05 1.641583e+05 1.641583e+05 8.306997e+05 8.306997e+05 8.029367e+05 4.466402e+05 4.466402e+05 4.466402e+05 3.753640e+05 3.753640e+05 3.753640e+05 3.574160e+05 3.574160e+05 1.732718e+05 5.986858e+05 5.986858e+05 5.986858e+05 5.864162e+05 8.580037e+05 8.580037e+05 8.580037e+05 8.396243e+05 8.060510e+05 6.960935e+05 6.960935e+05 6.960935e+05 8.545352e+05 8.236046e+05 8.236046e+05 8.236046e+05 8.437715e+05 4.122626e+05 4.350359e+05 4.122626e+05 4.122626e+05 2.068128e+05 2.068128e+05 1.441204e+05 4.727029e+05 4.727029e+05 8.729541e+05 8.975699e+05 8.481009e+05 8.481009e+05 8.437715e+05 7.203107e+05 6.754583e+05 8.018210e+05 7.730071e+05 7.372557e+05 7.372557e+05 7.484160e+05 7.030216e+05 7.394136e+05 7.484160e+05 7.079899e+05 6.453019e+05 6.453019e+05 6.624593e+05 6.624593e+05 6.893231e+05 6.443066e+05 6.239268e+05 6.064571e+05 6.064571e+05 5.858932e+05 6.163006e+05 5.610822e+05 5.200922e+05 5.200922e+05 4.350359e+05 3.854744e+05 3.854744e+05 3.659474e+05 3.659474e+05 3.516598e+05 3.393082e+05 2.998524e+05 1.856323e+05 1.441204e+05 1.441204e+05 1.775362e+05 1.775362e+05 1.775362e+05 1.761334e+05 1.635265e+05 1.805677e+05 1.805677e+05 1.805677e+05 1.798063e+05 1.914287e+05 1.914287e+05 1.914287e+05 1.898622e+05 1.871601e+05 2.256368e+05 2.256368e+05 2.256368e+05 2.311036e+05 2.713478e+05 2.713478e+05 2.713478e+05 2.689837e+05 2.602357e+05 2.340300e+05 2.340300e+05 2.284935e+05 3.211110e+05 3.211110e+05 3.211110e+05 3.280464e+05 3.280464e+05 3.058977e+05 3.058977e+05 3.058977e+05 2.015095e+05 2.015095e+05 3.030549e+05 3.030549e+05 3.030549e+05 2.967483e+05 2.967483e+05 4.033269e+05 4.033269e+05 4.033269e+05 3.569920e+05 3.569920e+05 3.569920e+05 2.767979e+05 2.767979e+05 2.767979e+05 1.889819e+05 3.530312e+05 3.458580e+05 2.997596e+05 2.918106e+05 3.995259e+05 3.644862e+05 3.644862e+05 2.653759e+05 2.653759e+05 2.969201e+05 2.844076e+05 3.352098e+05 3.352098e+05 3.352098e+05 4.055284e+05 4.727029e+05 3.006716e+05 2.503455e+05 2.503455e+05 2.503455e+05 3.300943e+05 2.841318e+05 2.525964e+05 2.360191e+05 2.200777e+05 2.648316e+05 2.201697e+05 2.155373e+05 2.126900e+05 2.126900e+05 1.701116e+05 4.692028e+05 4.692028e+05 3.503966e+05 2.448416e+05 2.448416e+05 3.282681e+05 5.444621e+05 2.281632e+05 2.281632e+05 2.051907e+05 2.051907e+05 2.051907e+05 3.113853e+05 3.677847e+05 2.074075e+05 2.246452e+05 2.063665e+05 1.967032e+05 1.962743e+05 1.962743e+05 1.962743e+05 1.876644e+05 1.876644e+05 1.914872e+05 1.903561e+05 1.903561e+05 1.836106e+05 1.824144e+05 1.732718e+05 1.791137e+05 1.791137e+05 1.684993e+05 1.717064e+05 3.616859e+05 4.551536e+05 4.551536e+05 5.158170e+05 5.158170e+05 4.135827e+05 1.642540e+05 2.543747e+05 3.439673e+05 3.704620e+05 3.769382e+05 3.993060e+05 3.993060e+05 4.271830e+05 4.271830e+05 4.271830e+05 4.533599e+05 4.759984e+05 4.957352e+05 5.252715e+05 5.252715e+05 5.276449e+05 6.552315e+05 2.071062e+05 2.193376e+05 3.919311e+05 5.453795e+05 2.263202e+05 2.349860e+05 2.040926e+05 1.964368e+05 2.098126e+05 1.978910e+05 1.843014e+05 2.180714e+05 1.859257e+05 1.859257e+05 1.823808e+05 1.817425e+05 1.741364e+05 1.738865e+05 1.738865e+05 1.726682e+05 1.762504e+05 1.769288e+05 3.799609e+05 4.203347e+05 4.765604e+05 5.710872e+05 4.680846e+05 4.965628e+05 4.203228e+05 5.457881e+05 4.914731e+05 1.715607e+05 1.594131e+05 9.061366e+05 9.060137e+05 9.070639e+05 9.060498e+05 9.058449e+05 9.068883e+05 9.066180e+05 9.040886e+05 9.023536e+05 8.999342e+05 8.956750e+05 8.907732e+05 8.854934e+05 8.779763e+05 8.749752e+05 8.685605e+05 8.615078e+05 8.575221e+05 8.551570e+05 8.488458e+05 8.452998e+05 8.390439e+05 8.316986e+05 8.282606e+05 8.194524e+05 8.202139e+05 8.068187e+05 8.046786e+05 7.975873e+05 7.948222e+05 7.933900e+05 7.880353e+05 7.843725e+05 7.787365e+05 7.723956e+05 7.620935e+05 7.580008e+05 7.485966e+05 7.358221e+05 7.301653e+05 7.241664e+05 7.161123e+05 7.066802e+05 6.964298e+05 6.908494e+05 6.841903e+05 6.724784e+05 6.602836e+05 6.531111e+05 6.436212e+05 6.315857e+05 6.218012e+05 6.100936e+05 5.969833e+05 5.862416e+05 5.758539e+05 5.639415e+05 5.550756e+05 5.434787e+05 5.350268e+05 5.248094e+05 5.166522e+05 5.047471e+05 4.930613e+05 4.782934e+05 4.713150e+05 4.582879e+05 4.492513e+05 4.395479e+05 4.285207e+05 4.174023e+05 4.080277e+05 3.980833e+05 3.887665e+05 3.782359e+05 3.689004e+05 3.583789e+05 3.469080e+05 3.352498e+05 3.246241e+05 3.154688e+05 3.056364e+05 2.944017e+05 2.855662e+05 2.762166e+05 2.666387e+05 2.564087e+05 2.467366e+05 2.372648e+05 2.279286e+05 2.179192e+05 2.077956e+05 1.993940e+05 1.887388e+05 1.801148e+05 1.713919e+05 1.611210e+05 1.526837e+05 1.445722e+05 1.363090e+05 1.278723e+05 1.196828e+05 1.120478e+05 1.033772e+05 9.643584e+04 8.764234e+04 8.037557e+04 7.368293e+04 6.666222e+04 6.083649e+04 5.520148e+04 4.820566e+04 4.238121e+04 3.669769e+04 3.074036e+04 2.667914e+04 2.034286e+04 1.480791e+04 1.068881e+04 6.457933e+03 1.869035e+03 -3.811562e+03 -8.313284e+03 -8.313284e+03 1.216749e+05 1.216749e+05 1.559046e+05 1.588041e+05 1.618717e+05 1.665608e+05 1.703482e+05 1.703482e+05 1.709021e+05 1.726682e+05 1.741364e+05 1.741364e+05 1.787236e+05 1.787236e+05 1.843014e+05 1.871601e+05 1.882818e+05 1.922323e+05 1.964368e+05 2.071062e+05 2.071062e+05 2.193376e+05 2.193376e+05 2.263202e+05 2.412860e+05 2.448416e+05 2.543747e+05 2.591472e+05 2.728262e+05 2.825150e+05 2.918106e+05 3.069749e+05 3.115583e+05 3.280464e+05 3.449692e+05 3.583582e+05 3.704620e+05 3.704620e+05 3.826268e+05 4.076626e+05 4.076626e+05 4.358409e+05 4.457907e+05 4.457907e+05 4.692028e+05 4.957352e+05 4.957352e+05 5.252715e+05 5.453795e+05 5.822383e+05 5.822383e+05 6.110313e+05 6.754583e+05 7.203107e+05 8.065846e+05 8.415004e+05 1.197822e+05 2.163359e+05 2.163359e+05 2.163359e+05 2.219120e+05 1.850835e+05 1.850835e+05 1.850835e+05 1.925453e+05 1.925453e+05 2.310446e+05 2.310446e+05 2.310446e+05 2.330927e+05 2.294142e+05 1.062193e+05 1.970180e+05 1.970180e+05 1.911956e+05 2.183250e+05 2.183250e+05 2.183250e+05 2.139772e+05 2.102603e+05 4.285783e+05 4.285783e+05 4.285783e+05 4.158491e+05 1.427384e+05 1.427384e+05 1.427384e+05 1.391026e+05 1.352322e+05 1.352322e+05 2.100611e+05 2.100611e+05 1.850401e+05 1.811525e+05 1.197822e+05 1.197822e+05 1.620938e+05 1.620938e+05 1.620938e+05 1.595365e+05 1.539102e+05 1.539102e+05 1.580224e+05 1.977125e+05 1.977125e+05 1.977125e+05 1.983097e+05 1.913550e+05 2.074661e+05 2.068892e+05 1.570544e+05 1.570544e+05 1.570544e+05 1.484305e+05 7.894097e+04 5.770710e+04 4.033028e+04 5.770710e+04 3.241297e+05 3.241297e+05 3.241297e+05 3.798932e+05 3.798932e+05 3.798932e+05 3.659965e+05 1.375380e+04 5.909159e+03 1.375380e+04 1.375380e+04 3.141396e+05 3.141396e+05 3.141396e+05 3.156794e+05 4.817149e+05 4.817149e+05 4.817149e+05 4.686376e+05 5.680331e+05 5.680331e+05 5.680331e+05 5.385295e+05 5.385295e+05 4.653518e+04 4.653518e+04 4.653518e+04 4.280456e+04 1.006662e+05 1.006662e+05 1.006662e+05 9.231543e+04 9.231543e+04 6.489784e+05 6.489784e+05 6.489784e+05 6.656126e+05 2.441775e+05 2.441775e+05 2.441775e+05 2.419328e+05 2.419328e+05 -1.395539e+04 -1.021810e+04 6.578038e+05 6.578038e+05 6.578038e+05 6.375704e+05 7.157422e+05 7.157422e+05 7.157422e+05 7.465120e+05 7.465120e+05 3.283059e+05 3.283059e+05 3.283059e+05 3.202492e+05 7.025424e+05 7.025424e+05 7.025424e+05 6.775525e+05 3.669769e+04 4.719152e+05 4.719152e+05 4.719152e+05 3.733578e+05 3.733578e+05 3.733578e+05 3.735699e+05 2.806853e+05 2.806853e+05 2.806853e+05 2.836065e+05 1.526837e+05 1.172003e+05 1.172003e+05 1.172003e+05 1.139013e+05 2.203172e+05 2.203172e+05 2.203172e+05 2.174719e+05 2.174719e+05 -1.021810e+04 -1.021810e+04 -1.395539e+04 5.470517e+05 5.470517e+05 5.470517e+05 5.874114e+05 5.874114e+05 2.392275e+05 2.446148e+05 2.446148e+05 4.466935e+05 4.466935e+05 4.466935e+05 4.747299e+05 4.747299e+05 4.125188e+05 4.125188e+05 4.125188e+05 4.204024e+05 4.890107e+04 3.974320e+04 4.890107e+04 4.890107e+04 5.388749e+04 1.908397e+05 1.908397e+05 1.908397e+05 1.987564e+05 2.095633e+05 2.211818e+05 2.211818e+05 1.377659e+05 1.377659e+05 1.220727e+05 1.220727e+05 2.367695e+05 2.367695e+05 2.367695e+05 2.522530e+05 2.522530e+05 1.287070e+05 1.287070e+05 1.287070e+05 1.282305e+05 1.216939e+05 1.744501e+05 1.584070e+05 3.058164e+05 3.058164e+05 3.058164e+05 3.004612e+05 3.544869e+05 3.544869e+05 3.544869e+05 3.467275e+05 2.482552e+05 2.482552e+05 2.482552e+05 4.000269e+05 4.000269e+05 4.000269e+05 1.408235e+05 1.408235e+05 1.408235e+05 4.561510e+05 4.561510e+05 4.561510e+05 5.058680e+04 5.058680e+04 5.058680e+04 4.961582e+04 4.297207e+04 1.483884e+05 1.483884e+05 1.483884e+05 6.336077e+04 6.336077e+04 6.464917e+04 2.834585e+05 2.834585e+05 2.834585e+05 2.920072e+05 1.751653e+05 1.751653e+05 1.751653e+05 1.743237e+05 1.331436e+05 1.331436e+05 5.788087e+05 5.788087e+05 5.788087e+05 5.581655e+05 1.313040e+04 1.313040e+04 1.313040e+04 1.387066e+04 7.993310e+04 7.993310e+04 7.993310e+04 8.162752e+04 5.401385e+05 5.401385e+05 5.401385e+05 3.503185e+05 3.503185e+05 3.503185e+05 3.503115e+05 1.952820e+05 1.952820e+05 1.952820e+05 1.957990e+05 1.938540e+05 1.938540e+05 1.938540e+05 1.891618e+05 2.617380e+05 2.617380e+05 2