<?xml version="1.0"?>
 <VTKFile type="UnstructuredGrid" version="1.0" byte_order="LittleEndian" header_type="UInt64">
  <UnstructuredGrid>
    <FieldData>
     <DataArray type="Float64" Name="TimeValue" NumberOfTuples="1" format="ascii">
0.00022
     </DataArray>
    </FieldData>
   <Piece NumberOfPoints="3632" NumberOfCells="3379">
    <PointData>
     <DataArray type="Float64" Name="pointP" format="ascii">
7.338349e+05 7.338349e+05 7.300866e+05 7.289616e+05 7.274529e+05 7.300533e+05 7.192283e+05 7.149387e+05 7.137944e+05 7.143556e+05 7.069238e+05 7.011068e+05 6.971838e+05 6.941303e+05 6.931078e+05 6.832067e+05 6.811725e+05 6.780310e+05 6.750319e+05 6.707175e+05 6.721346e+05 6.636069e+05 6.575773e+05 6.509896e+05 6.410814e+05 6.382079e+05 6.328620e+05 6.324835e+05 6.209652e+05 6.148146e+05 6.169240e+05 6.052314e+05 5.951903e+05 5.856683e+05 5.774324e+05 5.779524e+05 5.706594e+05 5.617421e+05 5.548375e+05 5.512022e+05 5.455982e+05 5.340779e+05 5.294682e+05 5.180645e+05 5.127610e+05 5.060809e+05 4.960053e+05 4.870203e+05 4.766487e+05 4.700009e+05 4.620991e+05 4.542304e+05 4.472936e+05 4.354825e+05 4.245751e+05 4.171887e+05 4.071016e+05 3.998808e+05 3.914609e+05 3.833514e+05 3.757095e+05 3.665059e+05 3.564166e+05 3.497628e+05 3.422932e+05 3.327810e+05 3.219875e+05 3.147289e+05 3.071943e+05 2.986577e+05 2.887387e+05 2.815890e+05 2.731270e+05 2.646113e+05 2.548645e+05 2.473983e+05 2.388806e+05 2.306541e+05 2.234144e+05 2.151625e+05 2.054342e+05 1.974223e+05 1.891327e+05 1.816825e+05 1.740769e+05 1.661642e+05 1.584227e+05 1.508654e+05 1.418775e+05 1.342655e+05 1.271330e+05 1.196611e+05 1.124108e+05 1.056403e+05 9.844047e+04 9.132118e+04 8.437162e+04 7.779654e+04 7.054421e+04 6.171613e+04 5.516501e+04 4.893272e+04 4.309666e+04 3.570862e+04 2.969058e+04 2.396326e+04 1.872707e+04 1.279592e+04 6.880459e+03 1.603427e+03 -2.105245e+03 -9.596645e+03 -1.363860e+04 -2.146504e+04 -2.705278e+04 -3.225033e+04 -3.698788e+04 -4.170943e+04 -4.709062e+04 -5.363160e+04 -5.789720e+04 -6.207931e+04 -6.528255e+04 -6.920050e+04 -7.338288e+04 -7.773958e+04 -8.184912e+04 -8.471464e+04 -8.650313e+04 -9.085459e+04 -9.415281e+04 -9.800990e+04 -1.023689e+05 -1.043874e+05 -1.084111e+05 -1.131171e+05 -1.143099e+05 -1.181619e+05 -1.198164e+05 -1.215253e+05 -1.257093e+05 -1.289621e+05 -1.312334e+05 -1.319929e+05 -1.322105e+05 -1.374104e+05 -1.359328e+05 -1.381552e+05 -1.368677e+05 -1.415898e+05 -1.447124e+05 -1.479305e+05 -1.486362e+05 -1.539110e+05 -1.585090e+05 -1.538975e+05 -1.571586e+05 -1.591285e+05 -1.604446e+05 -1.640197e+05 -1.596660e+05 -1.609296e+05 -1.569412e+05 -1.538078e+05 -1.545635e+05 -1.610540e+05 -1.663505e+05 -1.684370e+05 -1.654943e+05 -1.753878e+05 -1.752815e+05 -1.687562e+05 -1.664509e+05 -1.621753e+05 -1.696701e+05 -1.702274e+05 -1.753239e+05 -1.766428e+05 -1.670461e+05 -1.652797e+05 -2.025704e+05 1.099074e+05 1.099074e+05 1.099074e+05 1.284762e+05 1.284762e+05 1.284762e+05 1.327261e+05 1.290956e+05 1.537418e+05 1.402447e+05 1.779342e+05 1.779342e+05 1.779342e+05 1.778687e+05 4.885917e+04 4.885917e+04 4.885917e+04 4.847151e+04 5.476997e+04 4.367219e+05 4.367219e+05 4.367219e+05 4.347422e+05 4.345528e+05 4.345528e+05 4.345528e+05 4.243519e+05 8.336630e+04 8.336630e+04 8.336630e+04 9.020181e+04 9.574450e+04 9.608944e+04 -1.250499e+05 -1.250499e+05 -1.250499e+05 -1.342826e+05 -1.342826e+05 4.408708e+05 4.408708e+05 4.408708e+05 4.322611e+05 -1.754020e+05 -1.754020e+05 -1.754020e+05 -1.816571e+05 -1.816571e+05 6.327718e+05 6.327718e+05 6.327718e+05 2.460753e+05 2.460753e+05 2.460753e+05 2.503380e+05 1.726604e+05 1.726604e+05 1.726604e+05 4.398066e+05 4.398066e+05 4.398066e+05 4.551274e+05 -9.459840e+04 -9.459840e+04 -1.010697e+05 -1.010697e+05 2.811511e+05 2.811511e+05 2.865632e+05 4.438831e+05 4.438831e+05 4.438831e+05 4.664735e+05 4.664735e+05 -2.057271e+05 -2.057271e+05 -2.057271e+05 -2.049400e+05 -2.049400e+05 7.456059e+04 7.456059e+04 7.456059e+04 6.552026e+04 6.552026e+04 4.504863e+05 4.504863e+05 2.801130e+05 2.801130e+05 2.801130e+05 2.805586e+05 1.764384e+05 1.764384e+05 1.764384e+05 1.729495e+05 1.728673e+05 3.061485e+05 3.061485e+05 3.061485e+05 2.606045e+05 2.606045e+05 2.623703e+05 5.779524e+05 5.643360e+05 5.643360e+05 -1.621753e+05 -1.985164e+05 -1.985164e+05 1.694457e+05 -7.338288e+04 -7.223464e+04 1.675018e+05 1.257845e+05 1.257845e+05 1.257845e+05 1.324618e+05 7.034947e+04 1.259902e+05 1.259902e+05 1.259902e+05 1.378164e+05 1.378164e+05 4.071282e+04 4.071282e+04 4.071282e+04 4.945997e+04 -3.153693e+04 -3.153693e+04 -3.153693e+04 -3.356176e+04 4.219519e+05 4.182177e+05 4.070156e+05 4.467347e+05 4.467347e+05 1.475187e+05 1.475187e+05 1.475187e+05 1.538701e+05 3.143173e+05 3.143173e+05 3.143173e+05 3.221183e+05 3.221183e+05 3.139181e+05 -7.344342e+04 -7.344342e+04 -7.344342e+04 -7.765708e+04 -3.282672e+04 -3.282672e+04 -3.282672e+04 -2.509732e+04 -2.111801e+04 2.571839e+05 2.571839e+05 2.571839e+05 2.578575e+05 -2.023763e+05 -2.205063e+05 3.383999e+04 3.383999e+04 3.383999e+04 4.141405e+04 -1.174607e+05 -1.174607e+05 -1.174607e+05 -1.138148e+05 3.742292e+05 3.742292e+05 3.742292e+05 3.864523e+05 3.864523e+05 -1.527033e+05 -1.527033e+05 -1.527033e+05 -1.485808e+05 3.896238e+05 3.896238e+05 3.896238e+05 3.820133e+05 4.775358e+05 4.775358e+05 4.775358e+05 4.832217e+05 -7.045302e+04 -7.045302e+04 -6.877582e+04 1.815356e+05 1.815356e+05 1.994128e+05 1.994128e+05 1.994128e+05 1.401856e+05 1.401856e+05 1.401856e+05 1.373340e+05 -2.052658e+05 -2.052658e+05 -2.052658e+05 -2.086632e+05 -2.086632e+05 6.124332e+05 6.124332e+05 6.124332e+05 5.996481e+05 5.996481e+05 1.858928e+05 3.955457e+05 3.955457e+05 4.002415e+05 -2.016422e+05 -2.016422e+05 -2.016422e+05 -2.065185e+05 -1.664849e+05 -1.664849e+05 -1.772879e+05 -1.772879e+05 5.405089e+05 5.405089e+05 5.412784e+05 4.679488e+05 4.679488e+05 -1.733701e+05 -1.733701e+05 -1.875303e+05 -1.875303e+05 4.308288e+05 4.308288e+05 4.308288e+05 4.256092e+05 1.693514e+05 1.642779e+05 2.653841e+05 2.653841e+05 2.653841e+05 2.626871e+05 3.139866e+05 3.139866e+05 3.139866e+05 3.060375e+05 3.060375e+05 -2.232876e+05 -2.232876e+05 -2.232876e+05 -2.272772e+05 -2.272772e+05 2.861975e+05 2.931548e+05 6.267282e+05 6.267282e+05 6.267282e+05 6.212297e+05 -1.891422e+05 -1.891422e+05 -1.891422e+05 -1.949321e+05 -1.949321e+05 -1.892677e+05 -1.867077e+05 1.875919e+05 1.875919e+05 1.875919e+05 1.799754e+05 1.799754e+05 1.018766e+05 1.045643e+05 1.045643e+05 -1.042990e+05 -1.042990e+05 -1.042990e+05 -1.023493e+05 -1.023493e+05 -7.276257e+04 -7.276257e+04 -7.276257e+04 -7.897952e+04 -7.897952e+04 -1.665478e+05 -1.665478e+05 -1.606657e+05 -1.606657e+05 1.783968e+05 1.783968e+05 1.713317e+05 -1.511148e+05 -1.511148e+05 -1.543116e+05 -1.543116e+05 -8.150841e+04 -8.150841e+04 -8.150841e+04 -6.863341e+04 4.966304e+04 4.966304e+04 4.966304e+04 3.506351e+04 3.506351e+04 3.871589e+05 4.142439e+05 3.391358e+05 1.315347e+05 1.315347e+05 1.315347e+05 1.418892e+05 1.418892e+05 1.671013e+05 1.671013e+05 1.723619e+05 1.118314e+05 1.118314e+05 1.106539e+05 1.012597e+05 1.838041e+05 1.838041e+05 1.838041e+05 1.739090e+05 1.739090e+05 1.739090e+05 2.156453e+05 2.156453e+05 2.156453e+05 4.673318e+04 5.444331e+04 1.462830e+05 2.193822e+05 2.193822e+05 2.193822e+05 2.092885e+05 2.531494e+05 2.531494e+05 2.531494e+05 2.590234e+05 2.590234e+05 2.590234e+05 2.527381e+05 -4.683263e+04 -4.683263e+04 -4.683263e+04 5.483657e+04 5.483657e+04 5.483657e+04 2.045715e+05 2.045715e+05 2.045715e+05 3.750074e+05 3.750074e+05 3.751141e+05 -9.906965e+04 -4.325506e+04 -4.325506e+04 4.511499e+05 4.511499e+05 4.511499e+05 4.709888e+05 4.709888e+05 1.458635e+05 1.458635e+05 -2.284386e+05 -2.251349e+05 -2.205063e+05 5.076674e+05 5.076674e+05 5.076674e+05 4.985556e+05 -1.758693e+04 -1.758693e+04 -1.758693e+04 1.665679e+05 1.654813e+05 1.605342e+05 4.905505e+04 4.905505e+04 4.905505e+04 -1.109880e+05 -1.109880e+05 -1.109880e+05 -1.129422e+05 -1.166922e+05 1.872503e+05 1.872503e+05 1.872503e+05 5.776183e+05 5.776183e+05 5.776183e+05 5.753147e+05 3.170186e+05 3.170186e+05 3.170186e+05 3.130847e+05 5.914639e+05 5.914639e+05 5.914639e+05 2.683535e+05 9.003756e+04 9.003756e+04 1.108778e+05 1.108778e+05 1.108778e+05 1.088438e+05 1.106554e+05 -2.320754e+05 -2.320754e+05 -2.337235e+05 -2.159765e+05 -2.092556e+05 4.234292e+05 4.234292e+05 -7.860989e+04 -7.860989e+04 -7.860989e+04 -7.713676e+04 -1.846876e+05 -1.846876e+05 -1.846876e+05 -1.917358e+05 3.497628e+05 3.387835e+05 3.387835e+05 2.484400e+04 2.484400e+04 2.484400e+04 2.366234e+04 -1.649431e+05 5.862203e+04 5.862203e+04 6.019874e+04 4.602488e+05 4.602488e+05 4.602488e+05 6.204937e+05 6.204937e+05 5.858929e+05 5.858929e+05 5.858929e+05 6.150868e+05 6.416387e+05 6.416387e+05 6.416387e+05 6.365047e+05 6.365047e+05 6.597935e+05 5.491569e+05 5.491569e+05 1.028820e+05 -1.091783e+05 -1.091783e+05 -1.069616e+05 2.861605e+04 6.611366e+05 6.340423e+05 6.611366e+05 6.611366e+05 3.681012e+05 3.681012e+05 3.681012e+05 3.524755e+05 3.524755e+05 4.539153e+05 4.539153e+05 4.655689e+05 4.655689e+05 4.008773e+05 4.008773e+05 4.008773e+05 4.146843e+05 4.146843e+05 1.441124e+05 1.441124e+05 1.441124e+05 1.502577e+05 1.502577e+05 5.158679e+05 5.158679e+05 5.158679e+05 4.937557e+05 4.937557e+05 2.757889e+05 2.757889e+05 2.757889e+05 1.628095e+05 -1.995991e+05 -1.995991e+05 -1.995991e+05 -1.867446e+05 -1.867446e+05 -1.204717e+05 -1.204717e+05 -1.204717e+05 -1.029175e+05 -1.029175e+05 -2.988207e+04 -2.988207e+04 -2.988207e+04 -2.536454e+04 -2.536454e+04 4.410320e+05 4.410320e+05 4.410320e+05 1.767323e+05 1.767323e+05 1.767323e+05 1.856096e+05 1.856096e+05 2.951646e+04 5.209975e+04 -1.975509e+04 -1.975509e+04 -1.975509e+04 -2.921605e+04 1.622734e+05 1.622734e+05 1.593677e+05 1.023247e+05 1.023247e+05 1.029737e+05 1.029737e+05 1.113090e+05 1.178683e+05 2.203262e+05 1.960671e+05 2.203262e+05 2.203262e+05 1.537418e+05 1.537418e+05 1.240209e+05 2.552260e+05 2.636432e+05 4.816114e+05 4.816114e+05 4.816114e+05 4.745517e+05 4.798802e+05 2.124639e+04 2.124639e+04 2.124639e+04 1.384998e+04 -1.176931e+05 -9.162445e+04 -2.388309e+05 -2.388309e+05 -2.388309e+05 -2.372452e+05 3.899803e+05 3.983736e+05 4.008319e+05 1.108010e+05 1.108010e+05 1.084519e+05 -1.845692e+05 -1.832064e+05 -1.832064e+05 -1.827650e+05 -1.900594e+05 -1.033153e+05 -1.063214e+05 -1.101467e+05 6.962234e+03 6.962234e+03 6.962234e+03 6.021887e+03 -1.550391e+05 -1.550391e+05 -1.550391e+05 -1.463901e+05 1.156365e+05 -1.359328e+05 -1.535496e+05 -1.535496e+05 2.926975e+05 2.926975e+05 2.926975e+05 2.241248e+02 5.975573e+05 5.975573e+05 3.809246e+04 3.809246e+04 3.809246e+04 3.510786e+05 -1.740412e+05 -1.740412e+05 1.864982e+04 -9.598332e+03 -9.598332e+03 -9.598332e+03 -1.168632e+04 -9.130207e+04 -1.823230e+05 -1.823230e+05 -1.885361e+05 -1.571586e+05 1.298787e+05 1.298787e+05 -1.422977e+05 -1.422977e+05 -1.422977e+05 -1.356784e+05 5.447544e+05 5.383585e+05 5.383585e+05 3.186824e+05 -1.625794e+05 -1.625794e+05 -1.653686e+05 5.763324e+05 5.763324e+05 5.369868e+05 4.057454e+05 -5.363160e+04 -5.437082e+04 -5.437082e+04 6.926335e+05 6.926335e+05 -6.624496e+04 6.203053e+05 6.203053e+05 -3.480558e+04 -3.480558e+04 -3.480558e+04 -3.916837e+04 -1.170528e+05 -1.170528e+05 -8.181456e+04 -8.181456e+04 -1.901307e+05 -2.034944e+05 2.477303e+05 2.478876e+05 -1.322105e+05 -1.466938e+05 -1.466938e+05 1.508654e+05 1.536703e+05 1.536703e+05 -1.772820e+05 -1.772820e+05 -1.997454e+05 -1.997454e+05 4.888959e+05 1.608368e+05 6.964483e+05 6.964483e+05 6.918058e+05 7.089802e+05 7.089802e+05 5.455982e+05 5.182540e+05 3.555318e+05 3.555318e+05 3.555318e+05 6.318391e+05 6.318391e+05 6.318391e+05 6.327497e+05 -4.499104e+04 -4.499104e+04 3.797559e+05 -1.968555e+05 -1.968555e+05 -6.706919e+03 -9.733065e+04 4.800751e+04 4.800751e+04 4.800751e+04 -1.547540e+05 -1.547540e+05 5.294682e+05 5.038009e+05 5.038009e+05 2.234144e+05 2.246978e+05 1.974223e+05 1.998146e+05 -2.161026e+05 6.712477e+05 6.712477e+05 -1.257903e+05 -1.257903e+05 -1.257903e+05 -1.286049e+05 6.265298e+05 -8.820016e+04 -1.929156e+04 -1.929156e+04 -2.433033e+04 -5.871860e+04 -5.871860e+04 -1.876970e+05 -1.876970e+05 -1.692464e+05 3.327810e+05 3.249588e+05 3.249588e+05 6.390607e+04 6.817341e+05 6.817341e+05 6.507100e+05 6.507100e+05 8.470698e+04 8.470698e+04 8.470698e+04 -1.361674e+05 -1.361674e+05 -1.361674e+05 9.657288e+04 9.657288e+04 5.363944e+05 6.788915e+05 6.664620e+05 6.314105e+05 5.239704e+05 6.541652e+05 -1.837066e+05 2.317070e+05 2.366704e+05 -1.320870e+05 -1.320870e+05 4.255789e+05 3.771325e+05 -1.171339e+05 -1.232340e+05 7.572174e+04 7.572174e+04 7.338349e+05 7.113414e+05 6.819527e+05 6.819527e+05 6.819527e+05 7.099502e+05 5.672988e+05 5.398147e+05 6.027475e+05 5.961225e+05 2.160134e+05 2.160134e+05 2.119236e+05 5.135180e+05 -1.676136e+05 -1.478041e+05 4.167083e+05 3.717885e+05 3.717885e+05 3.717885e+05 5.134650e+04 -2.770935e+04 -2.770935e+04 -2.770935e+04 6.866676e+05 5.802395e+05 6.360087e+05 6.070324e+05 -6.573602e+04 3.247647e+05 6.221259e+05 6.497000e+05 -2.034094e+05 -2.152270e+05 -2.152270e+05 2.775419e+05 3.542050e+05 -1.788633e+05 -1.945124e+05 5.273483e+05 5.032996e+05 5.032996e+05 -1.638170e+05 -1.638170e+05 -1.663686e+05 -1.663686e+05 -4.236293e+04 4.245910e+05 1.474617e+05 -2.199983e+05 6.029693e+05 5.865701e+05 4.465109e+04 1.388350e+05 1.364740e+05 1.364740e+05 5.646081e+05 5.646081e+05 5.453679e+05 5.453679e+05 3.376228e+04 4.023117e+04 -8.180739e+04 -8.180739e+04 -8.110394e+04 -4.958432e+02 -4.958432e+02 -7.026060e+03 -7.026060e+03 -6.041211e+04 -6.041211e+04 -2.343929e+05 5.981202e+05 5.981202e+05 5.019119e+05 5.019119e+05 5.019119e+05 4.553188e+05 -1.743553e+05 -1.743553e+05 -1.316555e+05 -1.316555e+05 -2.033082e+05 -2.002970e+05 4.994742e+05 6.140815e+05 -1.930522e+05 -2.157647e+05 -2.157647e+05 7.825277e+04 7.825277e+04 8.709451e+04 -2.072198e+05 -2.072198e+05 -9.400432e+04 -9.400432e+04 5.744518e+05 5.744518e+05 2.300998e+05 6.711260e+05 3.398447e+05 3.398447e+05 3.349835e+05 1.487057e+05 1.539158e+05 -1.835367e+05 -1.624705e+05 -5.305887e+04 6.473319e+05 -2.298916e+05 -1.488865e+04 -1.488865e+04 -1.488865e+04 1.210380e+05 1.210380e+05 1.210380e+05 1.916985e+05 1.991247e+04 1.991247e+04 1.991247e+04 1.178217e+04 6.703282e+05 6.477659e+05 4.151785e+05 3.996529e+05 3.996529e+05 9.649797e+04 9.649797e+04 9.649797e+04 4.376885e+05 -1.684472e+05 6.230250e+05 6.636317e+05 6.636317e+05 6.460324e+05 1.224735e+05 -1.074749e+05 -1.074749e+05 -1.070629e+05 -5.304025e+04 -5.304025e+04 6.157892e+05 -2.003257e+05 -4.791285e+04 -4.164365e+04 -1.190307e+05 2.108184e+05 2.175829e+05 6.167518e+05 5.283824e+04 5.283824e+04 5.283824e+04 -9.266697e+04 -9.266697e+04 4.817070e+05 4.652051e+05 4.652051e+05 5.682283e+05 5.572559e+05 -1.520347e+05 -1.516981e+05 5.696105e+05 5.696105e+05 5.696105e+05 5.629952e+05 -1.463456e+05 -1.463456e+05 -1.420023e+05 -2.197244e+05 -2.197244e+05 2.413242e+05 2.413242e+05 2.413242e+05 2.412427e+05 -4.986338e+04 5.730000e+05 5.730000e+05 5.730000e+05 5.770184e+05 6.077459e+05 -1.275882e+05 -1.275882e+05 -1.289417e+05 -1.289417e+05 -1.580350e+05 4.844756e+05 4.844756e+05 8.542354e+04 7.859941e+04 4.369858e+05 4.369858e+05 -1.355405e+05 -1.337058e+05 5.515786e+05 6.340423e+05 6.261438e+05 -6.410972e+04 -6.291415e+04 6.055034e+05 2.108009e+04 2.108009e+04 1.968836e+04 1.968836e+04 -6.695260e+04 5.606224e+04 6.391212e+04 3.805191e+05 -3.396020e+04 -1.407801e+05 -1.342007e+05 4.813503e+05 4.813503e+05 6.298312e+05 6.298312e+05 6.298312e+05 6.133794e+05 -2.130731e+05 -2.130731e+05 -2.166346e+05 2.329003e+05 2.298543e+05 3.579828e+05 -2.341372e+05 -2.295956e+05 -2.295956e+05 -2.295956e+05 -2.319382e+05 -1.819225e+00 7.300866e+05 5.541768e+05 5.305131e+05 5.305131e+05 -1.839844e+05 -1.839844e+05 -1.839844e+05 -1.885026e+05 6.012281e+05 6.012281e+05 5.264078e+05 5.264078e+05 5.170771e+05 4.045590e+05 3.163500e+05 5.989460e+05 -2.910909e+04 -3.501458e+04 6.084880e+05 6.050276e+05 1.559451e+05 3.364210e+05 3.364210e+05 3.364210e+05 3.458385e+05 -1.804962e+05 2.933654e+04 2.897240e+04 -2.117629e+05 -2.075859e+05 1.097644e+05 1.141051e+05 -9.963491e+04 -9.963491e+04 3.685432e+05 -7.116515e+04 -7.116515e+04 -6.331079e+04 -8.622536e+04 -8.622536e+04 4.691396e+03 -1.682753e+05 -1.682753e+05 -1.732453e+05 5.224159e+05 5.848499e+05 5.848499e+05 -1.545525e+04 -1.390435e+04 -1.390435e+04 2.638487e+05 -1.937400e+05 -2.254840e+05 -2.240323e+05 4.876694e+05 4.876694e+05 1.357714e+05 -5.115652e+04 2.568857e+05 2.535424e+05 2.299788e+05 4.899904e+05 4.899904e+05 3.526574e+05 3.526574e+05 3.526574e+05 2.211193e+05 2.217879e+05 4.252108e+05 4.249524e+05 4.249524e+05 1.395452e+05 1.322486e+05 1.322486e+05 2.879171e+05 2.016224e+05 2.106624e+05 5.539271e+05 5.555127e+05 5.555127e+05 5.555127e+05 5.650490e+05 -2.000770e+05 -1.285927e+05 -2.853071e+03 2.724636e+03 -1.000137e+05 -1.000137e+05 -1.000137e+05 5.954439e+04 5.954439e+04 5.954439e+04 6.209036e+04 7.144045e+04 -1.894721e+05 -1.576487e+05 -1.601745e+05 3.757661e+04 3.757661e+04 -1.691054e+05 -1.613545e+05 -1.620901e+05 -1.620901e+05 1.963122e+04 -7.230870e+04 -7.230870e+04 -7.558031e+04 3.892409e+05 3.892409e+05 3.795646e+05 -2.807756e+04 -2.807756e+04 1.703726e+05 -1.324291e+05 -1.324291e+05 -1.385487e+05 -1.385487e+05 -2.084442e+05 -2.084442e+05 -2.084442e+05 5.369060e+05 5.204123e+05 5.204123e+05 -2.231312e+05 -2.231312e+05 -2.231312e+05 -2.284301e+05 -2.097948e+05 4.860360e+04 5.417553e+05 5.417553e+05 5.238383e+05 5.054555e+05 5.054555e+05 5.054555e+05 3.101477e+05 3.101477e+05 3.052733e+05 2.763129e+05 2.763129e+05 2.843536e+05 -2.006968e+05 -1.872174e+05 -1.872174e+05 5.866596e+05 5.675860e+05 -4.213263e+04 -4.213263e+04 -4.213263e+04 6.004614e+05 -1.519791e+05 -1.519791e+05 -1.483981e+05 -1.483981e+05 -2.036997e+05 -2.036997e+05 -2.011156e+05 -2.011156e+05 -2.179181e+05 -2.179181e+05 -2.200550e+05 2.415537e+05 2.397236e+05 -3.675035e+04 4.631033e+05 4.631033e+05 4.631033e+05 5.987315e+04 3.432669e+05 -1.768659e+05 3.057775e+05 5.822503e+05 -9.206449e+04 3.678308e+05 3.678308e+05 5.884762e+05 5.693402e+05 5.693402e+05 2.630770e+05 2.650071e+05 5.582057e+05 5.582057e+05 5.362732e+05 -1.640211e+05 -1.640211e+05 7.974216e+04 1.329227e+05 4.930361e+05 1.930688e+05 5.787016e+05 5.549948e+05 5.549948e+05 -5.069762e+04 3.573103e+04 1.106152e+04 5.443273e+05 5.542841e+05 -1.965037e+05 -1.965037e+05 -8.810823e+04 -8.810823e+04 1.469190e+05 -2.089580e+05 -2.107882e+05 -2.107882e+05 5.089004e+05 -6.076288e+04 -4.936442e+04 1.020570e+04 1.020570e+04 1.020570e+04 9.300307e+01 9.300307e+01 3.367257e+05 4.798513e+05 5.354244e+05 4.094236e+05 4.094236e+05 2.186259e+05 2.186259e+05 2.207541e+05 2.064111e+05 2.064111e+05 5.539033e+05 5.539033e+05 5.539033e+05 5.302293e+05 5.302293e+05 2.810291e+05 2.810291e+05 2.905082e+05 3.387702e+05 3.180536e+05 3.180536e+05 3.180536e+05 -1.243997e+05 3.567814e+05 3.459715e+05 3.459715e+05 -1.184752e+05 -1.146059e+05 -2.251349e+05 -1.994024e+05 5.150406e+05 2.656343e+05 2.544249e+05 5.675860e+05 4.212645e+05 4.212645e+05 4.042148e+05 4.042148e+05 4.375535e+05 4.389658e+05 5.164608e+05 -1.827245e+05 -1.341087e+05 -1.341087e+05 -1.344454e+05 -2.122099e+05 4.588048e+05 -2.210925e+05 6.992849e+04 -1.082501e+05 5.354812e+05 4.949842e+05 4.949842e+05 4.867930e+05 4.867930e+05 -9.573482e+03 1.211931e+05 1.211931e+05 1.211931e+05 -3.856865e+04 4.492718e+05 1.674428e+05 -1.659614e+05 -1.679355e+05 -6.511940e+04 -2.066534e+05 -1.439629e+05 -1.587376e+05 -1.817389e+05 -1.817389e+05 -1.817389e+05 3.583486e+05 -2.541735e+04 -2.027832e+05 4.089923e+05 4.089923e+05 3.983835e+05 2.151149e+05 7.221923e+04 7.221923e+04 4.844677e+05 2.973932e+05 3.037406e+05 -1.949855e+05 2.062861e+05 2.062861e+05 2.225313e+05 -2.148650e+05 -1.832631e+05 -1.832631e+05 -1.887317e+05 1.268870e+05 1.268870e+05 1.268870e+05 2.399030e+05 2.186631e+04 1.781588e+05 2.321845e+03 -7.194003e+03 -7.194003e+03 -3.667546e+04 -1.009414e+05 3.548639e+05 3.548639e+05 4.340175e+05 -5.728469e+04 -5.728469e+04 -5.728469e+04 -6.221632e+04 5.168750e+05 2.630354e+05 4.951632e+05 4.701326e+05 1.027462e+05 3.308342e+05 3.363806e+05 4.909385e+05 2.501469e+05 2.488625e+05 -2.023763e+05 2.432265e+05 4.133731e+05 4.133731e+05 4.133731e+05 5.429216e+05 5.314704e+05 4.030768e+05 4.700332e+05 5.429216e+05 -1.671122e+05 -1.850482e+05 -8.779023e+04 2.977545e+05 2.766752e+05 1.931832e+05 -1.502868e+05 -1.502868e+05 -1.502868e+05 -4.692979e+04 4.700388e+05 4.700388e+05 5.021521e+05 5.021521e+05 2.251188e+05 -1.726554e+05 4.575676e+05 8.642562e+04 8.642562e+04 8.642562e+04 3.618196e+04 4.447753e+05 4.447753e+05 7.957832e+04 1.802412e+05 3.044018e+05 -1.451301e+05 4.119472e+05 4.119472e+05 4.119472e+05 -1.621907e+05 -1.621907e+05 -1.621907e+05 5.389606e+05 1.752724e+05 4.753290e+05 4.753290e+05 -1.808825e+05 -1.808825e+05 -1.808825e+05 -1.730611e+05 2.097333e+04 2.097333e+04 2.097333e+04 3.645683e+05 3.645683e+05 3.645683e+05 3.979429e+05 1.062265e+05 1.035751e+05 1.250361e+05 1.250361e+05 1.250361e+05 5.002639e+04 5.458654e+04 5.458654e+04 3.547658e+05 3.303593e+05 5.225866e+05 1.001630e+05 9.443567e+04 -1.306526e+05 -1.032846e+05 2.481046e+05 -6.187062e+04 -1.386695e+05 -1.386695e+05 -1.482482e+05 4.305852e+05 2.231866e+05 -4.180808e+04 -4.705610e+04 7.335320e+04 2.461268e+05 5.420170e+03 5.420170e+03 3.343600e+05 3.574813e+05 3.469521e+05 -7.314860e+04 1.734261e+05 4.405707e+05 -1.245397e+05 -1.245397e+05 -1.591297e+05 -1.591297e+05 3.759819e+05 3.759819e+05 3.759819e+05 3.553915e+05 3.553915e+05 2.421599e+05 3.959323e+05 3.896538e+05 3.896538e+05 -6.266265e+04 2.032383e+05 2.192035e+05 2.778688e+05 2.778688e+05 2.992007e+05 3.613470e+05 -1.209170e+05 -1.209170e+05 3.401147e+05 3.317249e+05 -1.306526e+05 -1.306526e+05 -3.879648e+04 -6.729433e+03 -6.729433e+03 -6.729433e+03 1.483939e+05 -7.902001e+04 -7.453137e+04 8.322156e+04 8.322156e+04 8.322156e+04 1.169600e+05 1.300227e+05 2.226904e+05 1.080482e+05 -4.624846e+04 2.776203e+05 2.776203e+05 2.776203e+05 2.649487e+05 -1.590694e+04 3.471248e+05 3.471248e+05 3.471248e+05 3.079192e+05 -1.062004e+05 3.233403e+05 3.233403e+05 1.535241e+05 -1.082621e+05 -1.082621e+05 -1.082621e+05 -1.116464e+05 -1.116464e+05 4.147460e+05 3.888434e+05 3.888434e+05 -9.441756e+04 -2.042713e+04 -2.042713e+04 2.574619e+05 -8.786516e+04 -8.786516e+04 -8.786516e+04 -6.787046e+04 -6.787046e+04 -6.787046e+04 1.217056e+05 1.217056e+05 1.319123e+05 3.907505e+04 -9.378895e+04 -9.378895e+04 1.148658e+05 1.851311e+05 1.851311e+05 1.675351e+05 1.675351e+05 3.159260e+05 1.247527e+04 1.759842e+04 1.759842e+04 5.602113e+03 5.602113e+03 7.916889e+04 7.916889e+04 9.992683e+04 2.348167e+05 2.348167e+05 2.189214e+05 2.189214e+05 4.650431e+04 2.412074e+05 3.568663e+05 3.486277e+05 3.486277e+05 2.240890e+05 1.585582e+05 7.115426e+04 3.280325e+05 3.280325e+05 2.395057e+05 3.391358e+05 3.391358e+05 -8.522551e+04 -8.522551e+04 2.622869e+05 3.057936e+05 3.057936e+05 3.057936e+05 2.843657e+05 2.843657e+05 3.217251e+05 1.880371e+05 1.880371e+05 2.895063e+05 2.895063e+05 2.732142e+05 7.076001e+04 1.494046e+05 -2.788809e+04 -3.646780e+04 3.154905e+05 3.154905e+05 -1.298075e+04 -1.298075e+04 1.186100e+05 1.186100e+05 -7.023037e+04 1.661054e+05 1.661054e+05 1.493414e+05 4.366427e+04 4.366427e+04 2.540397e+05 2.540397e+05 2.370810e+05 1.924087e+05 1.924087e+05 7.904154e+04 7.904154e+04 1.355996e+05 1.355996e+05 1.055029e+05 1.078949e+05 1.078949e+05 9.905695e+03 7.144750e+03 6.666061e+04 1.839018e+05 1.851872e+05 2.948376e+05 2.883773e+05 2.525693e+05 2.525693e+05 2.911173e+05 3.435444e+04 3.435444e+04 1.491323e+04 2.113516e+05 2.868891e+05 3.063659e+05 3.063659e+05 1.025345e+05 1.025345e+05 2.582087e+05 2.831833e+05 6.972159e+04 6.972159e+04 2.405302e+05 2.405302e+05 -5.108174e+03 2.702108e+04 2.702108e+04 2.702108e+04 1.063702e+04 1.063702e+04 2.362048e+05 2.208151e+05 1.932400e+05 1.932400e+05 2.140496e+05 2.140496e+05 2.345445e+05 5.782352e+04 2.715308e+05 2.451317e+05 1.560570e+05 1.306657e+05 1.824762e+05 1.530845e+05 2.100729e+05 8.616327e+04 1.414350e+05 1.719888e+05 1.559161e+05 1.628765e+05 2.030587e+05 1.960671e+05 1.078117e+05 1.078117e+05 1.554918e+05 1.480834e+05 1.810680e+05 9.598670e+04 1.023576e+05 1.631194e+05 1.631194e+05 1.616642e+05 1.616642e+05 1.211094e+05 1.211094e+05 1.515077e+05 1.385915e+05 1.385915e+05 1.385915e+05 1.389662e+05 1.389662e+05 6.230546e+04 6.230546e+04 6.230546e+04 1.922358e+04 1.922358e+04 -5.211630e+04 -4.290269e+04 8.708783e+04 -5.211630e+04 -5.211630e+04 -6.111702e+04 -6.122006e+03 2.439100e+04 3.682433e+04 4.298153e+04 4.452341e+04 6.649322e+04 6.852076e+04 8.298052e+04 8.298052e+04 1.175665e+05 -6.883648e+04 8.708783e+04 2.830489e+05 2.220344e+05 1.516826e+05 2.831463e+05 2.831463e+05 2.519844e+05 2.505723e+05 2.519844e+05 1.202875e+05 2.359389e+05 1.341345e+05 9.355612e+04 9.629495e+04 9.629495e+04 1.415978e+05 7.338349e+05 7.338349e+05 7.300866e+05 7.289616e+05 7.274529e+05 7.300533e+05 7.192283e+05 7.149387e+05 7.137944e+05 7.143556e+05 7.069238e+05 7.011068e+05 6.971838e+05 6.941303e+05 6.931078e+05 6.832067e+05 6.811725e+05 6.780310e+05 6.750319e+05 6.707175e+05 6.721346e+05 6.636069e+05 6.575773e+05 6.509896e+05 6.410814e+05 6.382079e+05 6.328620e+05 6.324835e+05 6.209652e+05 6.148146e+05 6.169240e+05 6.052314e+05 5.951903e+05 5.856683e+05 5.774324e+05 5.779524e+05 5.706594e+05 5.617421e+05 5.548375e+05 5.512022e+05 5.455982e+05 5.340779e+05 5.294682e+05 5.180645e+05 5.127610e+05 5.060809e+05 4.960053e+05 4.870203e+05 4.766487e+05 4.700009e+05 4.620991e+05 4.542304e+05 4.472936e+05 4.354825e+05 4.245751e+05 4.171887e+05 4.071016e+05 3.998808e+05 3.914609e+05 3.833514e+05 3.757095e+05 3.665059e+05 3.564166e+05 3.497628e+05 3.422932e+05 3.327810e+05 3.219875e+05 3.147289e+05 3.071943e+05 2.986577e+05 2.887387e+05 2.815890e+05 2.731270e+05 2.646113e+05 2.548645e+05 2.473983e+05 2.388806e+05 2.306541e+05 2.234144e+05 2.151625e+05 2.054342e+05 1.974223e+05 1.891327e+05 1.816825e+05 1.740769e+05 1.661642e+05 1.584227e+05 1.508654e+05 1.418775e+05 1.342655e+05 1.271330e+05 1.196611e+05 1.124108e+05 1.056403e+05 9.844047e+04 9.132118e+04 8.437162e+04 7.779654e+04 7.054421e+04 6.171613e+04 5.516501e+04 4.893272e+04 4.309666e+04 3.570862e+04 2.969058e+04 2.396326e+04 1.872707e+04 1.279592e+04 6.880459e+03 1.603427e+03 -2.105245e+03 -9.596645e+03 -1.363860e+04 -2.146504e+04 -2.705278e+04 -3.225033e+04 -3.698788e+04 -4.170943e+04 -4.709062e+04 -5.363160e+04 -5.789720e+04 -6.207931e+04 -6.528255e+04 -6.920050e+04 -7.338288e+04 -7.773958e+04 -8.184912e+04 -8.471464e+04 -8.650313e+04 -9.085459e+04 -9.415281e+04 -9.800990e+04 -1.023689e+05 -1.043874e+05 -1.084111e+05 -1.131171e+05 -1.143099e+05 -1.181619e+05 -1.198164e+05 -1.215253e+05 -1.257093e+05 -1.289621e+05 -1.312334e+05 -1.319929e+05 -1.322105e+05 -1.374104e+05 -1.359328e+05 -1.381552e+05 -1.368677e+05 -1.415898e+05 -1.447124e+05 -1.479305e+05 -1.486362e+05 -1.539110e+05 -1.585090e+05 -1.538975e+05 -1.571586e+05 -1.591285e+05 -1.604446e+05 -1.640197e+05 -1.596660e+05 -1.609296e+05 -1.569412e+05 -1.538078e+05 -1.545635e+05 -1.610540e+05 -1.663505e+05 -1.684370e+05 -1.654943e+05 -1.753878e+05 -1.752815e+05 -1.687562e+05 -1.664509e+05 -1.621753e+05 -1.696701e+05 -1.702274e+05 -1.753239e+05 -1.766428e+05 -1.670461e+05 -1.652797e+05 -2.025704e+05 1.099074e+05 1.099074e+05 1.099074e+05 1.284762e+05 1.284762e+05 1.284762e+05 1.327261e+05 1.290956e+05 1.537418e+05 1.402447e+05 1.779342e+05 1.779342e+05 1.779342e+05 1.778687e+05 4.885917e+04 4.885917e+04 4.885917e+04 4.847151e+04 5.476997e+04 4.367219e+05 4.367219e+05 4.367219e+05 4.347422e+05 4.345528e+05 4.345528e+05 4.345528e+05 4.243519e+05 8.336630e+04 8.336630e+04 8.336630e+04 9.020181e+04 9.574450e+04 9.608944e+04 -1.250499e+05 -1.250499e+05 -1.250499e+05 -1.342826e+05 -1.342826e+05 4.408708e+05 4.408708e+05 4.408708e+05 4.322611e+05 -1.754020e+05 -1.754020e+05 -1.754020e+05 -1.816571e+05 -1.816571e+05 6.327718e+05 6.327718e+05 6.327718e+05 2.460753e+05 2.460753e+05 2.460753e+05 2.503380e+05 1.726604e+05 1.726604e+05 1.726604e+05 4.398066e+05 4.398066e+05 4.398066e+05 4.551274e+05 -9.459840e+04 -9.459840e+04 -1.010697e+05 -1.010697e+05 2.811511e+05 2.811511e+05 2.865632e+05 4.438831e+05 4.438831e+05 4.438831e+05 4.664735e+05 4.664735e+05 -2.057271e+05 -2.057271e+05 -2.057271e+05 -2.049400e+05 -2.049400e+05 7.456059e+04 7.456059e+04 7.456059e+04 6.552026e+04 6.552026e+04 4.504863e+05 4.504863e+05 2.801130e+05 2.801130e+05 2.801130e+05 2.805586e+05 1.764384e+05 1.764384e+05 1.764384e+05 1.729495e+05 1.728673e+05 3.061485e+05 3.061485e+05 3.061485e+05 2.606045e+05 2.606045e+05 2.623703e+05 5.779524e+05 5.643360e+05 5.643360e+05 -1.621753e+05 -1.985164e+05 -1.985164e+05 1.694457e+05 -7.338288e+04 -7.223464e+04 1.675018e+05 1.257845e+05 1.257845e+05 1.257845e+05 1.324618e+05 7.034947e+04 1.259902e+05 1.259902e+05 1.259902e+05 1.378164e+05 1.378164e+05 4.071282e+04 4.071282e+04 4.071282e+04 4.945997e+04 -3.153693e+04 -3.153693e+04 -3.153693e+04 -3.356176e+04 4.219519e+05 4.182177e+05 4.070156e+05 4.467347e+05 4.467347e+05 1.475187e+05 1.475187e+05 1.475187e+05 1.538701e+05 3.143173e+05 3.143173e+05 3.143173e+05 3.221183e+05 3.221183e+05 3.139181e+05 -7.344342e+04 -7.344342e+04 -7.344342e+04 -7.765708e+04 -3.282672e+04 -3.282672e+04 -3.282672e+04 -2.509732e+04 -2.111801e+04 2.571839e+05 2.571839e+05 2.571839e+05 2.578575e+05 -2.023763e+05 -2.205063e+05 3.383999e+04 3.383999e+04 3.383999e+04 4.141405e+04 -1.174607e+05 -1.174607e+05 -1.174607e+05 -1.138148e+05 3.742292e+05 3.742292e+05 3.742292e+05 3.864523e+05 3.864523e+05 -1.527033e+05 -1.527033e+05 -1.527033e+05 -1.485808e+05 3.896238e+05 3.896238e+05 3.896238e+05 3.820133e+05 4.775358e+05 4.775358e+05 4.775358e+05 4.832217e+05 -7.045302e+04 -7.045302e+04 -6.877582e+04 1.815356e+05 1.815356e+05 1.994128e+05 1.994128e+05 1.994128e+05 1.401856e+05 1.401856e+05 1.401856e+05 1.373340e+05 -2.052658e+05 -2.052658e+05 -2.052658e+05 -2.086632e+05 -2.086632e+05 6.124332e+05 6.124332e+05 6.124332e+05 5.996481e+05 5.996481e+05 1.858928e+05 3.955457e+05 3.955457e+05 4.002415e+05 -2.016422e+05 -2.016422e+05 -2.016422e+05 -2.065185e+05 -1.664849e+05 -1.664849e+05 -1.772879e+05 -1.772879e+05 5.405089e+05 5.405089e+05 5.412784e+05 4.679488e+05 4.679488e+05 -1