<?xml version="1.0"?>
 <VTKFile type="UnstructuredGrid" version="1.0" byte_order="LittleEndian" header_type="UInt64">
  <UnstructuredGrid>
   <Piece NumberOfPoints="3662" NumberOfCells="3444">
    <PointData>
    </PointData>
    <CellData>
     <DataArray type="Float64" Name="pressure" format="ascii">
1.013285e+05 1.013290e+05 1.013287e+05 1.013289e+05 1.013289e+05 1.013280e+05 1.013279e+05 1.013274e+05 1.013271e+05 1.013443e+05 1.013438e+05 1.013320e+05 1.013315e+05 1.013314e+05 1.013305e+05 1.013264e+05 1.013262e+05 1.013334e+05 1.013329e+05 1.013293e+05 1.013290e+05 1.013295e+05 1.013302e+05 1.013545e+05 1.013543e+05 1.013539e+05 1.013472e+05 1.013466e+05 1.013338e+05 1.013340e+05 1.013608e+05 1.013612e+05 1.013163e+05 1.013161e+05 1.013445e+05 1.013445e+05 1.013468e+05 1.013468e+05 1.013359e+05 1.013362e+05 1.013290e+05 1.013293e+05 1.013269e+05 1.013266e+05 1.013174e+05 1.013172e+05 1.013199e+05 1.013201e+05 1.013329e+05 1.013333e+05 1.013168e+05 1.013166e+05 1.013541e+05 1.013543e+05 1.013595e+05 1.013591e+05 1.013169e+05 1.013573e+05 1.013573e+05 1.013454e+05 1.013452e+05 1.013334e+05 1.013331e+05 1.013612e+05 1.013610e+05 1.013372e+05 1.013372e+05 1.013353e+05 1.013348e+05 1.013529e+05 1.013532e+05 1.013327e+05 1.013314e+05 1.013301e+05 1.013299e+05 1.013312e+05 1.013308e+05 1.013339e+05 1.013337e+05 1.013512e+05 1.013509e+05 1.013601e+05 1.013602e+05 1.013360e+05 1.013359e+05 1.013372e+05 1.013370e+05 1.013453e+05 1.013450e+05 1.013286e+05 1.013284e+05 1.013299e+05 1.013303e+05 1.013473e+05 1.013477e+05 1.013622e+05 1.013459e+05 1.013451e+05 1.013616e+05 1.013263e+05 1.013445e+05 1.013451e+05 1.013235e+05 1.013447e+05 1.013436e+05 1.013255e+05 1.013243e+05 1.013298e+05 1.013295e+05 1.013306e+05 1.013303e+05 1.013356e+05 1.013356e+05 1.013310e+05 1.013309e+05 1.013586e+05 1.013599e+05 1.013594e+05 1.013490e+05 1.013485e+05 1.013357e+05 1.013577e+05 1.013601e+05 1.013602e+05 1.013604e+05 1.013482e+05 1.013588e+05 1.013603e+05 1.013329e+05 1.013326e+05 1.013314e+05 1.013313e+05 1.013311e+05 1.013299e+05 1.013285e+05 1.013309e+05 1.013308e+05 1.013309e+05 1.013308e+05 1.013310e+05 1.013309e+05 1.013330e+05 1.013328e+05 1.013420e+05 1.013425e+05 1.013545e+05 1.013543e+05 1.013485e+05 1.013551e+05 1.013556e+05 1.013613e+05 1.013598e+05 1.013516e+05 1.013512e+05 1.013350e+05 1.013349e+05 1.013357e+05 1.013354e+05 1.013337e+05 1.013342e+05 1.013312e+05 1.013312e+05 1.013311e+05 1.013315e+05 1.013312e+05 1.013315e+05 1.013349e+05 1.013354e+05 1.013345e+05 1.013332e+05 1.013326e+05 1.013361e+05 1.013610e+05 1.013581e+05 1.013591e+05 1.013601e+05 1.013576e+05 1.013574e+05 1.013597e+05 1.013594e+05 1.013575e+05 1.013579e+05 1.013558e+05 1.013563e+05 1.013610e+05 1.013604e+05 1.013594e+05 1.013562e+05 1.013569e+05 1.013582e+05 1.013560e+05 1.013551e+05 1.013569e+05 1.013574e+05 1.013565e+05 1.013557e+05 1.013567e+05 1.013560e+05 1.013532e+05 1.013536e+05 1.013620e+05 1.013542e+05 1.013547e+05 1.013555e+05 1.013549e+05 1.013607e+05 1.013619e+05 1.013520e+05 1.013518e+05 1.013538e+05 1.013545e+05 1.013500e+05 1.013507e+05 1.013547e+05 1.013584e+05 1.013538e+05 1.013586e+05 1.013515e+05 1.013525e+05 1.013572e+05 1.013555e+05 1.013583e+05 1.013561e+05 1.013528e+05 1.013523e+05 1.013542e+05 1.013554e+05 1.013544e+05 1.013529e+05 1.013514e+05 1.013489e+05 1.013515e+05 1.013506e+05 1.013503e+05 1.013507e+05 1.013498e+05 1.013564e+05 1.013553e+05 1.013591e+05 1.013528e+05 1.013509e+05 1.013501e+05 1.013494e+05 1.013528e+05 1.013505e+05 1.013549e+05 1.013460e+05 1.013533e+05 1.013478e+05 1.013477e+05 1.013477e+05 1.013519e+05 1.013493e+05 1.013539e+05 1.013530e+05 1.013566e+05 1.013508e+05 1.013486e+05 1.013537e+05 1.013508e+05 1.013455e+05 1.013530e+05 1.013501e+05 1.013518e+05 1.013490e+05 1.013445e+05 1.013552e+05 1.013581e+05 1.013513e+05 1.013501e+05 1.013474e+05 1.013463e+05 1.013431e+05 1.013415e+05 1.013493e+05 1.013465e+05 1.013458e+05 1.013417e+05 1.013498e+05 1.013542e+05 1.013472e+05 1.013562e+05 1.013493e+05 1.013462e+05 1.013460e+05 1.013488e+05 1.013411e+05 1.013450e+05 1.013505e+05 1.013438e+05 1.013431e+05 1.013424e+05 1.013428e+05 1.013437e+05 1.013433e+05 1.013441e+05 1.013445e+05 1.013445e+05 1.013419e+05 1.013413e+05 1.013401e+05 1.013362e+05 1.013384e+05 1.013396e+05 1.013344e+05 1.013344e+05 1.013334e+05 1.013340e+05 1.013321e+05 1.013342e+05 1.013351e+05 1.013333e+05 1.013328e+05 1.013306e+05 1.013297e+05 1.013292e+05 1.013310e+05 1.013307e+05 1.013308e+05 1.013307e+05 1.013306e+05 1.013306e+05 1.013309e+05 1.013309e+05 1.013308e+05 1.013311e+05 1.013309e+05 1.013309e+05 1.013311e+05 1.013312e+05 1.013314e+05 1.013316e+05 1.013312e+05 1.013311e+05 1.013317e+05 1.013316e+05 1.013317e+05 1.013316e+05 1.013317e+05 1.013314e+05 1.013310e+05 1.013315e+05 1.013320e+05 1.013322e+05 1.013313e+05 1.013318e+05 1.013319e+05 1.013324e+05 1.013324e+05 1.013311e+05 1.013321e+05 1.013322e+05 1.013319e+05 1.013319e+05 1.013327e+05 1.013328e+05 1.013317e+05 1.013318e+05 1.013327e+05 1.013310e+05 1.013315e+05 1.013314e+05 1.013319e+05 1.013340e+05 1.013336e+05 1.013313e+05 1.013321e+05 1.013323e+05 1.013329e+05 1.013332e+05 1.013312e+05 1.013321e+05 1.013328e+05 1.013331e+05 1.013334e+05 1.013338e+05 1.013325e+05 1.013339e+05 1.013337e+05 1.013340e+05 1.013326e+05 1.013324e+05 1.013346e+05 1.013319e+05 1.013340e+05 1.013337e+05 1.013335e+05 1.013352e+05 1.013353e+05 1.013367e+05 1.013363e+05 1.013367e+05 1.013345e+05 1.013387e+05 1.013381e+05 1.013377e+05 1.013364e+05 1.013373e+05 1.013370e+05 1.013366e+05 1.013351e+05 1.013377e+05 1.013401e+05 1.013570e+05 1.013492e+05 1.013469e+05 1.013443e+05 1.013438e+05 1.013419e+05 1.013409e+05 1.013393e+05 1.013384e+05 1.013331e+05 1.013323e+05 1.013320e+05 1.013315e+05 1.013312e+05 1.013309e+05 1.013621e+05 1.013587e+05 1.013588e+05 1.013591e+05 1.013572e+05 1.013562e+05 1.013557e+05 1.013550e+05 1.013543e+05 1.013532e+05 1.013526e+05 1.013509e+05 1.013497e+05 1.013480e+05 1.013484e+05 1.013472e+05 1.013438e+05 1.013431e+05 1.013427e+05 1.013415e+05 1.013405e+05 1.013391e+05 1.013381e+05 1.013263e+05 1.013308e+05 1.013301e+05 1.013302e+05 1.013304e+05 1.013304e+05 1.013301e+05 1.013275e+05 1.013272e+05 1.013268e+05 1.013305e+05 1.013300e+05 1.013261e+05 1.013306e+05 1.013297e+05 1.013299e+05 1.013302e+05 1.013265e+05 1.013305e+05 1.013299e+05 1.013271e+05 1.013304e+05 1.013265e+05 1.013302e+05 1.013577e+05 1.013330e+05 1.013465e+05 1.013532e+05 1.013265e+05 1.013239e+05 1.013357e+05 1.013329e+05 1.013454e+05 1.013294e+05 1.013321e+05 1.013281e+05 1.013240e+05 1.013293e+05 1.013315e+05 1.013322e+05 1.013307e+05 1.013281e+05 1.013280e+05 1.013452e+05 1.013259e+05 1.013346e+05 1.013370e+05 1.013376e+05 1.013340e+05 1.013388e+05 1.013270e+05 1.013400e+05 1.013305e+05 1.013487e+05 1.013310e+05 1.013540e+05 1.013300e+05 1.013586e+05 1.013562e+05 1.013405e+05 1.013503e+05 1.013197e+05 1.013363e+05 1.013355e+05 1.013524e+05 1.013182e+05 1.013543e+05 1.013252e+05 1.013226e+05 1.013271e+05 1.013242e+05 1.013395e+05 1.013562e+05 1.013546e+05 1.013473e+05 1.013413e+05 1.013370e+05 1.013362e+05 1.013393e+05 1.013376e+05 1.013384e+05 1.013420e+05 1.013214e+05 1.013311e+05 1.013379e+05 1.013277e+05 1.013345e+05 1.013357e+05 1.013383e+05 1.013385e+05 1.013401e+05 1.013395e+05 1.013413e+05 1.013461e+05 1.013273e+05 1.013276e+05 1.013286e+05 1.013282e+05 1.013308e+05 1.013317e+05 1.013314e+05 1.013309e+05 1.013269e+05 1.013279e+05 1.013262e+05 1.013311e+05 1.013290e+05 1.013306e+05 1.013326e+05 1.013318e+05 1.013313e+05 1.013308e+05 1.013304e+05 1.013274e+05 1.013287e+05 1.013312e+05 1.013361e+05 1.013311e+05 1.013308e+05 1.013265e+05 1.013322e+05 1.013319e+05 1.013310e+05 1.013269e+05 1.013278e+05 1.013281e+05 1.013294e+05 1.013309e+05 1.013306e+05 1.013315e+05 1.013269e+05 1.013353e+05 1.013311e+05 1.013258e+05 1.013314e+05 1.013304e+05 1.013318e+05 1.013312e+05 1.013322e+05 1.013287e+05 1.013272e+05 1.013265e+05 1.013289e+05 1.013291e+05 1.013317e+05 1.013304e+05 1.013326e+05 1.013334e+05 1.013254e+05 1.013267e+05 1.013330e+05 1.013367e+05 1.013316e+05 1.013334e+05 1.013324e+05 1.013243e+05 1.013376e+05 1.013409e+05 1.013322e+05 1.013317e+05 1.013317e+05 1.013325e+05 1.013318e+05 1.013332e+05 1.013322e+05 1.013320e+05 1.013338e+05 1.013344e+05 1.013256e+05 1.013259e+05 1.013291e+05 1.013369e+05 1.013285e+05 1.013274e+05 1.013330e+05 1.013333e+05 1.013316e+05 1.013338e+05 1.013294e+05 1.013300e+05 1.013364e+05 1.013363e+05 1.013254e+05 1.013258e+05 1.013349e+05 1.013337e+05 1.013237e+05 1.013271e+05 1.013227e+05 1.013406e+05 1.013415e+05 1.013424e+05 1.013281e+05 1.013236e+05 1.013341e+05 1.013385e+05 1.013335e+05 1.013319e+05 1.013305e+05 1.013306e+05 1.013303e+05 1.013354e+05 1.013351e+05 1.013296e+05 1.013230e+05 1.013244e+05 1.013381e+05 1.013388e+05 1.013369e+05 1.013367e+05 1.013257e+05 1.013272e+05 1.013242e+05 1.013242e+05 1.013329e+05 1.013369e+05 1.013400e+05 1.013397e+05 1.013430e+05 1.013326e+05 1.013330e+05 1.013265e+05 1.013221e+05 1.013279e+05 1.013396e+05 1.013373e+05 1.013389e+05 1.013441e+05 1.013454e+05 1.013391e+05 1.013244e+05 1.013343e+05 1.013401e+05 1.013375e+05 1.013321e+05 1.013304e+05 1.013403e+05 1.013288e+05 1.013303e+05 1.013297e+05 1.013315e+05 1.013348e+05 1.013360e+05 1.013385e+05 1.013194e+05 1.013352e+05 1.013364e+05 1.013537e+05 1.013355e+05 1.013432e+05 1.013482e+05 1.013273e+05 1.013407e+05 1.013440e+05 1.013405e+05 1.013464e+05 1.013506e+05 1.013249e+05 1.013255e+05 1.013220e+05 1.013345e+05 1.013356e+05 1.013499e+05 1.013424e+05 1.013518e+05 1.013530e+05 1.013247e+05 1.013185e+05 1.013364e+05 1.013428e+05 1.013542e+05 1.013242e+05 1.013254e+05 1.013398e+05 1.013352e+05 1.013246e+05 1.013227e+05 1.013207e+05 1.013326e+05 1.013252e+05 1.013318e+05 1.013281e+05 1.013315e+05 1.013445e+05 1.013303e+05 1.013261e+05 1.013406e+05 1.013458e+05 1.013384e+05 1.013478e+05 1.013242e+05 1.013186e+05 1.013557e+05 1.013528e+05 1.013551e+05 1.013600e+05 1.013177e+05 1.013597e+05 1.013592e+05 1.013478e+05 1.013501e+05 1.013438e+05 1.013458e+05 1.013319e+05 1.013311e+05 1.013299e+05 1.013224e+05 1.013228e+05 1.013552e+05 1.013344e+05 1.013269e+05 1.013273e+05 1.013343e+05 1.013356e+05 1.013370e+05 1.013233e+05 1.013490e+05 1.013458e+05 1.013213e+05 1.013333e+05 1.013358e+05 1.013387e+05 1.013397e+05 1.013404e+05 1.013408e+05 1.013430e+05 1.013434e+05 1.013450e+05 1.013483e+05 1.013518e+05 1.013595e+05 1.013374e+05 1.013397e+05 1.013412e+05 1.013443e+05 1.013471e+05 1.013553e+05 1.013308e+05 1.013332e+05 1.013348e+05 1.013336e+05 1.013349e+05 1.013370e+05 1.013387e+05 1.013358e+05 1.013368e+05 1.013407e+05 1.013390e+05 1.013414e+05 1.013420e+05 1.013359e+05 1.013371e+05 1.013422e+05 1.013399e+05 1.013418e+05 1.013435e+05 1.013404e+05 1.013414e+05 1.013388e+05 1.013378e+05 1.013446e+05 1.013437e+05 1.013448e+05 1.013414e+05 1.013411e+05 1.013435e+05 1.013386e+05 1.013409e+05 1.013487e+05 1.013515e+05 1.013496e+05 1.013524e+05 1.013422e+05 1.013423e+05 1.013571e+05 1.013586e+05 1.013327e+05 1.013407e+05 1.013399e+05 1.013392e+05 1.013393e+05 1.013536e+05 1.013425e+05 1.013430e+05 1.013426e+05 1.013364e+05 1.013380e+05 1.013592e+05 1.013585e+05 1.013580e+05 1.013312e+05 1.013310e+05 1.013265e+05 1.013262e+05 1.013248e+05 1.013476e+05 1.013465e+05 1.013462e+05 1.013465e+05 1.013468e+05 1.013474e+05 1.013473e+05 1.013480e+05 1.013258e+05 1.013443e+05 1.013450e+05 1.013275e+05 1.013475e+05 1.013466e+05 1.013258e+05 1.013295e+05 1.013297e+05 1.013463e+05 1.013456e+05 1.013621e+05 1.013620e+05 1.013614e+05 1.013618e+05 1.013617e+05 1.013618e+05 1.013604e+05 1.013615e+05 1.013612e+05 1.013608e+05 1.013612e+05 1.013613e+05 1.013610e+05 1.013606e+05 1.013600e+05 1.013602e+05 1.013579e+05 1.013601e+05 1.013600e+05 1.013596e+05 1.013587e+05 1.013592e+05 1.013570e+05 1.013586e+05 1.013584e+05 1.013581e+05 1.013564e+05 1.013570e+05 1.013567e+05 1.013567e+05 1.013561e+05 1.013550e+05 1.013548e+05 1.013544e+05 1.013535e+05 1.013530e+05 1.013523e+05 1.013527e+05 1.013525e+05 1.013507e+05 1.013518e+05 1.013509e+05 1.013506e+05 1.013518e+05 1.013499e+05 1.013494e+05 1.013492e+05 1.013493e+05 1.013490e+05 1.013481e+05 1.013472e+05 1.013470e+05 1.013445e+05 1.013450e+05 1.013444e+05 1.013439e+05 1.013431e+05 1.013425e+05 1.013415e+05 1.013429e+05 1.013402e+05 1.013404e+05 1.013400e+05 1.013387e+05 1.013392e+05 1.013380e+05 1.013382e+05 1.013368e+05 1.013369e+05 1.013377e+05 1.013340e+05 1.013359e+05 1.013336e+05 1.013330e+05 1.013324e+05 1.013315e+05 1.013306e+05 1.013322e+05 1.013290e+05 1.013289e+05 1.013280e+05 1.013269e+05 1.013271e+05 1.013261e+05 1.013264e+05 1.013253e+05 1.013257e+05 1.013228e+05 1.013220e+05 1.013216e+05 1.013224e+05 1.013221e+05 1.013209e+05 1.013207e+05 1.013205e+05 1.013196e+05 1.013210e+05 1.013190e+05 1.013185e+05 1.013166e+05 1.013153e+05 1.013616e+05 1.013501e+05 1.013416e+05 1.013358e+05 1.013297e+05 1.013251e+05 1.013195e+05 1.013293e+05 1.013304e+05 1.013301e+05 1.013283e+05 1.013277e+05 1.013271e+05 1.013300e+05 1.013289e+05 1.013283e+05 1.013294e+05 1.013276e+05 1.013280e+05 1.013301e+05 1.013309e+05 1.013272e+05 1.013285e+05 1.013295e+05 1.013312e+05 1.013310e+05 1.013259e+05 1.013266e+05 1.013303e+05 1.013302e+05 1.013333e+05 1.013265e+05 1.013270e+05 1.013296e+05 1.013282e+05 1.013301e+05 1.013306e+05 1.013247e+05 1.013248e+05 1.013265e+05 1.013275e+05 1.013290e+05 1.013236e+05 1.013321e+05 1.013317e+05 1.013264e+05 1.013246e+05 1.013353e+05 1.013346e+05 1.013278e+05 1.013234e+05 1.013357e+05 1.013230e+05 1.013242e+05 1.013296e+05 1.013357e+05 1.013312e+05 1.013330e+05 1.013283e+05 1.013252e+05 1.013263e+05 1.013393e+05 1.013369e+05 1.013287e+05 1.013256e+05 1.013315e+05 1.013378e+05 1.013362e+05 1.013344e+05 1.013319e+05 1.013385e+05 1.013390e+05 1.013241e+05 1.013214e+05 1.013199e+05 1.013373e+05 1.013381e+05 1.013255e+05 1.013232e+05 1.013267e+05 1.013261e+05 1.013247e+05 1.013254e+05 1.013300e+05 1.013209e+05 1.013216e+05 1.013332e+05 1.013285e+05 1.013409e+05 1.013395e+05 1.013373e+05 1.013408e+05 1.013363e+05 1.013366e+05 1.013348e+05 1.013343e+05 1.013272e+05 1.013280e+05 1.013322e+05 1.013335e+05 1.013228e+05 1.013209e+05 1.013293e+05 1.013291e+05 1.013313e+05 1.013306e+05 1.013404e+05 1.013336e+05 1.013225e+05 1.013236e+05 1.013258e+05 1.013238e+05 1.013223e+05 1.013215e+05 1.013495e+05 1.013462e+05 1.013281e+05 1.013289e+05 1.013325e+05 1.013329e+05 1.013267e+05 1.013247e+05 1.013393e+05 1.013422e+05 1.013333e+05 1.013348e+05 1.013376e+05 1.013369e+05 1.013200e+05 1.013210e+05 1.013275e+05 1.013418e+05 1.013395e+05 1.013357e+05 1.013361e+05 1.013392e+05 1.013402e+05 1.013321e+05 1.013323e+05 1.013300e+05 1.013289e+05 1.013496e+05 1.013454e+05 1.013382e+05 1.013371e+05 1.013421e+05 1.013436e+05 1.013389e+05 1.013392e+05 1.013230e+05 1.013238e+05 1.013166e+05 1.013213e+05 1.013199e+05 1.013253e+05 1.013389e+05 1.013383e+05 1.013374e+05 1.013426e+05 1.013443e+05 1.013365e+05 1.013350e+05 1.013291e+05 1.013275e+05 1.013375e+05 1.013399e+05 1.013360e+05 1.013367e+05 1.013299e+05 1.013294e+05 1.013201e+05 1.013449e+05 1.013434e+05 1.013443e+05 1.013484e+05 1.013244e+05 1.013253e+05 1.013272e+05 1.013293e+05 1.013273e+05 1.013258e+05 1.013431e+05 1.013477e+05 1.013507e+05 1.013446e+05 1.013465e+05 1.013205e+05 1.013433e+05 1.013417e+05 1.013210e+05 1.013228e+05 1.013446e+05 1.013482e+05 1.013399e+05 1.013414e+05 1.013398e+05 1.013536e+05 1.013478e+05 1.013454e+05 1.013173e+05 1.013212e+05 1.013253e+05 1.013347e+05 1.013331e+05 1.013266e+05 1.013489e+05 1.013436e+05 1.013413e+05 1.013492e+05 1.013520e+05 1.013316e+05 1.013334e+05 1.013366e+05 1.013347e+05 1.013335e+05 1.013342e+05 1.013356e+05 1.013332e+05 1.013570e+05 1.013541e+05 1.013452e+05 1.013412e+05 1.013424e+05 1.013390e+05 1.013405e+05 1.013227e+05 1.013314e+05 1.013274e+05 1.013281e+05 1.013280e+05 1.013463e+05 1.013457e+05 1.013482e+05 1.013462e+05 1.013407e+05 1.013220e+05 1.013218e+05 1.013296e+05 1.013370e+05 1.013340e+05 1.013471e+05 1.013447e+05 1.013161e+05 1.013422e+05 1.013403e+05 1.013190e+05 1.013406e+05 1.013415e+05 1.013251e+05 1.013228e+05 1.013213e+05 1.013443e+05 1.013477e+05 1.013201e+05 1.013220e+05 1.013478e+05 1.013459e+05 1.013507e+05 1.013489e+05 1.013548e+05 1.013556e+05 1.013561e+05 1.013497e+05 1.013304e+05 1.013323e+05 1.013262e+05 1.013278e+05 1.013282e+05 1.013298e+05 1.013361e+05 1.013359e+05 1.013376e+05 1.013385e+05 1.013187e+05 1.013427e+05 1.013412e+05 1.013271e+05 1.013285e+05 1.013348e+05 1.013362e+05 1.013346e+05 1.013342e+05 1.013322e+05 1.013479e+05 1.013492e+05 1.013382e+05 1.013373e+05 1.013330e+05 1.013340e+05 1.013421e+05 1.013450e+05 1.013501e+05 1.013385e+05 1.013395e+05 1.013499e+05 1.013518e+05 1.013442e+05 1.013458e+05 1.013217e+05 1.013211e+05 1.013251e+05 1.013238e+05 1.013437e+05 1.013428e+05 1.013581e+05 1.013590e+05 1.013221e+05 1.013215e+05 1.013216e+05 1.013248e+05 1.013524e+05 1.013275e+05 1.013312e+05 1.013520e+05 1.013523e+05 1.013471e+05 1.013501e+05 1.013505e+05 1.013490e+05 1.013464e+05 1.013348e+05 1.013348e+05 1.013475e+05 1.013487e+05 1.013517e+05 1.013474e+05 1.013210e+05 1.013529e+05 1.013512e+05 1.013291e+05 1.013266e+05 1.013304e+05 1.013326e+05 1.013382e+05 1.013401e+05 1.013413e+05 1.013421e+05 1.013261e+05 1.013267e+05 1.013481e+05 1.013473e+05 1.013430e+05 1.013428e+05 1.013572e+05 1.013580e+05 1.013390e+05 1.013391e+05 1.013221e+05 1.013198e+05 1.013495e+05 1.013485e+05 1.013459e+05 1.013444e+05 1.013332e+05 1.013334e+05 1.013550e+05 1.013556e+05 1.013292e+05 1.013288e+05 1.013230e+05 1.013246e+05 1.013378e+05 1.013360e+05 1.013411e+05 1.013386e+05 1.013170e+05 1.013240e+05 1.013515e+05 1.013519e+05 1.013431e+05 1.013453e+05 1.013353e+05 1.013359e+05 1.013508e+05 1.013515e+05 1.013400e+05 1.013443e+05 1.013360e+05 1.013371e+05 1.013278e+05 1.013289e+05 1.013203e+05 1.013200e+05 1.013526e+05 1.013496e+05 1.013542e+05 1.013528e+05 1.013429e+05 1.013435e+05 1.013423e+05 1.013421e+05 1.013283e+05 1.013298e+05 1.013449e+05 1.013423e+05 1.013177e+05 1.013179e+05 1.013235e+05 1.013250e+05 1.013532e+05 1.013548e+05 1.013195e+05 1.013395e+05 1.013413e+05 1.013467e+05 1.013475e+05 1.013355e+05 1.013328e+05 1.013260e+05 1.013249e+05 1.013288e+05 1.013299e+05 1.013220e+05 1.013206e+05 1.013451e+05 1.013469e+05 1.013555e+05 1.013570e+05 1.013358e+05 1.013353e+05 1.013256e+05 1.013245e+05 1.013447e+05 1.013463e+05 1.013217e+05 1.013228e+05 1.013466e+05 1.013483e+05 1.013378e+05 1.013360e+05 1.013307e+05 1.013318e+05 1.013406e+05 1.013414e+05 1.013539e+05 1.013563e+05 1.013277e+05 1.013309e+05 1.013449e+05 1.013436e+05 1.013604e+05 1.013575e+05 1.013523e+05 1.013523e+05 1.013564e+05 1.013244e+05 1.013231e+05 1.013328e+05 1.013352e+05 1.013391e+05 1.013379e+05 1.013189e+05 1.013538e+05 1.013529e+05 1.013543e+05 1.013537e+05 1.013504e+05 1.013495e+05 1.013523e+05 1.013522e+05 1.013482e+05 1.013504e+05 1.013404e+05 1.013410e+05 1.013505e+05 1.013525e+05 1.013461e+05 1.013443e+05 1.013513e+05 1.013483e+05 1.013354e+05 1.013340e+05 1.013409e+05 1.013381e+05 1.013237e+05 1.013226e+05 1.013322e+05 1.013338e+05 1.013409e+05 1.013312e+05 1.013333e+05 1.013313e+05 1.013338e+05 1.013190e+05 1.013269e+05 1.013260e+05 1.013254e+05 1.013264e+05 1.013372e+05 1.013375e+05 1.013423e+05 1.013423e+05 1.013227e+05 1.013379e+05 1.013364e+05 1.013558e+05 1.013591e+05 1.013504e+05 1.013501e+05 1.013478e+05 1.013481e+05 1.013458e+05 1.013446e+05 1.013159e+05 1.013537e+05 1.013224e+05 1.013198e+05 1.013540e+05 1.013552e+05 1.013341e+05 1.013338e+05 1.013535e+05 1.013489e+05 1.013483e+05 1.013511e+05 1.013187e+05 1.013281e+05 1.013270e+05 1.013485e+05 1.013511e+05 1.013301e+05 1.013291e+05 1.013476e+05 1.013485e+05 1.013293e+05 1.013604e+05 1.013521e+05 1.013520e+05 1.013433e+05 1.013441e+05 1.013450e+05 1.013435e+05 1.013564e+05 1.013574e+05 1.013502e+05 1.013319e+05 1.013313e+05 1.013263e+05 1.013271e+05 1.013184e+05 1.013191e+05 1.013532e+05 1.013534e+05 1.013467e+05 1.013454e+05 1.013196e+05 1.013457e+05 1.013451e+05 1.013241e+05 1.013243e+05 1.013555e+05 1.013561e+05 1.013510e+05 1.013492e+05 1.013392e+05 1.013488e+05 1.013500e+05 1.013405e+05 1.013395e+05 1.013529e+05 1.013532e+05 1.013420e+05 1.013413e+05 1.013255e+05 1.013281e+05 1.013574e+05 1.013565e+05 1.013471e+05 1.013478e+05 1.013358e+05 1.013341e+05 1.013268e+05 1.013267e+05 1.013464e+05 1.013456e+05 1.013556e+05 1.013579e+05 1.013555e+05 1.013544e+05 1.013231e+05 1.013218e+05 1.013223e+05 1.013345e+05 1.013358e+05 1.013511e+05 1.013373e+05 1.013362e+05 1.013194e+05 1.013317e+05 1.013333e+05 1.013197e+05 1.013180e+05 1.013517e+05 1.013506e+05 1.013546e+05 1.013555e+05 1.013435e+05 1.013420e+05 1.013340e+05 1.013378e+05 1.013384e+05 1.013325e+05 1.013325e+05 1.013419e+05 1.013544e+05 1.013559e+05 1.013393e+05 1.013400e+05 1.013492e+05 1.013487e+05 1.013249e+05 1.013233e+05 1.013480e+05 1.013478e+05 1.013276e+05 1.013298e+05 1.013412e+05 1.013458e+05 1.013449e+05 1.013519e+05 1.013590e+05 1.013611e+05 1.013299e+05 1.013287e+05 1.013557e+05 1.013553e+05 1.013554e+05 1.013543e+05 1.013179e+05 1.013306e+05 1.013305e+05 1.013169e+05 1.013467e+05 1.013455e+05 1.013580e+05 1.013593e+05 1.013164e+05 1.013591e+05 1.013610e+05 1.013217e+05 1.013206e+05 1.013418e+05 1.013407e+05 1.013247e+05 1.013259e+05 1.013551e+05 1.013573e+05 1.013249e+05 1.013257e+05 1.013583e+05 1.013576e+05 1.013528e+05 1.013532e+05 1.013169e+05 1.013449e+05 1.013429e+05 1.013514e+05 1.013539e+05 1.013523e+05 1.013473e+05 1.013463e+05 1.013329e+05 1.013343e+05 1.013202e+05 1.013212e+05 1.013384e+05 1.013401e+05 1.013387e+05 1.013397e+05 1.013393e+05 1.013411e+05 1.013566e+05 1.013569e+05 1.013534e+05 1.013394e+05 1.013568e+05 1.013523e+05 1.013512e+05 1.013503e+05 1.013496e+05 1.013218e+05 1.013218e+05 1.013547e+05 1.013539e+05 1.013302e+05 1.013292e+05 1.013298e+05 1.013527e+05 1.013534e+05 1.013582e+05 1.013566e+05 1.013449e+05 1.013459e+05 1.013573e+05 1.013579e+05 1.013558e+05 1.013569e+05 1.013253e+05 1.013267e+05 1.013390e+05 1.013382e+05 1.013482e+05 1.013475e+05 1.013237e+05 1.013577e+05 1.013584e+05 1.013485e+05 1.013500e+05 1.013200e+05 1.013204e+05 1.013325e+05 1.013318e+05 1.013258e+05 1.013246e+05 1.013598e+05 1.013585e+05 1.013424e+05 1.013436e+05 1.013370e+05 1.013350e+05 1.013161e+05 1.013158e+05 1.013468e+05 1.013468e+05 1.013516e+05 1.013501e+05 1.013404e+05 1.013414e+05 1.013269e+05 1.013250e+05 1.013534e+05 1.013514e+05 1.013386e+05 1.013391e+05 1.013590e+05 1.013582e+05 1.013564e+05 1.013552e+05 1.013579e+05 1.013571e+05 1.013568e+05 1.013558e+05 1.013154e+05 1.013546e+05 1.013533e+05 1.013387e+05 1.013374e+05 1.013160e+05 1.013179e+05 1.013183e+05 1.013195e+05 1.013233e+05 1.013368e+05 1.013367e+05 1.013560e+05 1.013542e+05 1.013319e+05 1.013185e+05 1.013193e+05 1.013457e+05 1.013457e+05 1.013207e+05 1.013214e+05 1.013428e+05 1.013423e+05 1.013552e+05 1.013539e+05 1.013273e+05 1.013293e+05 1.013535e+05 1.013537e+05 1.013475e+05 1.013490e+05 1.013511e+05 1.013497e+05 1.013463e+05 1.013570e+05 1.013582e+05 1.013312e+05 1.013586e+05 1.013602e+05 1.013485e+05 1.013344e+05 1.013346e+05 1.013606e+05 1.013595e+05 1.013566e+05 1.013564e+05 1.013163e+05 1.013178e+05 1.013238e+05 1.013225e+05 1.013609e+05 1.013582e+05 1.013564e+05 1.013575e+05 1.013459e+05 1.013471e+05 1.013314e+05 1.013321e+05 1.013565e+05 1.013552e+05 1.013430e+05 1.013435e+05 1.013431e+05 1.013472e+05 1.013478e+05 1.013494e+05 1.013486e+05 1.013214e+05 1.013210e+05 1.013192e+05 1.013180e+05 1.013169e+05 1.013493e+05 1.013491e+05 1.013284e+05 1.013281e+05 1.013524e+05 1.013241e+05 1.013235e+05 1.013303e+05 1.013292e+05 1.013445e+05 1.013454e+05 1.013601e+05 1.013571e+05 1.013561e+05 1.013403e+05 1.013413e+05 1.013355e+05 1.013350e+05 1.013429e+05 1.013548e+05 1.013552e+05 1.013153e+05 1.013492e+05 1.013512e+05 1.013229e+05 1.013408e+05 1.013396e+05 1.013520e+05 1.013505e+05 1.013606e+05 1.013611e+05 1.013517e+05 1.013529e+05 1.013460e+05 1.013460e+05 1.013364e+05 1.013360e+05 1.013370e+05 1.013374e+05 1.013559e+05 1.013546e+05 1.013463e+05 1.013455e+05 1.013336e+05 1.013330e+05 1.013571e+05 1.013575e+05 1.013602e+05 1.013601e+05 1.013537e+05 1.013529e+05 1.013289e+05 1.013303e+05 1.013188e+05 1.013224e+05 1.013262e+05 1.013262e+05 1.013310e+05 1.013310e+05 1.013548e+05 1.013557e+05 1.013237e+05 1.013237e+05 1.013579e+05 1.013571e+05 1.013278e+05 1.013288e+05 1.013569e+05 1.013567e+05 1.013468e+05 1.013464e+05 1.013355e+05 1.013344e+05 1.013576e+05 1.013586e+05 1.013335e+05 1.013345e+05 1.013314e+05 1.013231e+05 1.013215e+05 1.013195e+05 1.013210e+05 1.013487e+05 1.013494e+05 1.013399e+05 1.013401e+05 1.013601e+05 1.013439e+05 1.013437e+05 1.013244e+05 1.013247e+05 1.013543e+05 1.013540e+05 1.013523e+05 1.013260e+05 1.013250e+05 1.013421e+05 1.013427e+05 1.013594e+05 1.013587e+05 1.013596e+05 1.013586e+05 1.013300e+05 1.013306e+05 1.013285e+05 1.013292e+05 1.013467e+05 1.013472e+05 1.013378e+05 1.013375e+05 1.013301e+05 1.013297e+05 1.013387e+05 1.013393e+05 1.013265e+05 1.013265e+05 1.013513e+05 1.013525e+05 1.013575e+05 1.013568e+05 1.013473e+05 1.013484e+05 1.013564e+05 1.013566e+05 1.013587e+05 1.013598e+05 1.013172e+05 1.013157e+05 1.013552e+05 1.013564e+05 1.013503e+05 1.013497e+05 1.013264e+05 1.013277e+05 1.013487e+05 1.013480e+05 1.013578e+05 1.013573e+05 1.013583e+05 1.013397e+05 1.013394e+05 1.013424e+05 1.013434e+05 1.013346e+05 1.013196e+05 1.013479e+05 1.013364e+05 1.013391e+05 1.013403e+05 1.013584e+05 1.013573e+05 1.013523e+05 1.013531e+05 1.013431e+05 1.013414e+05 1.013416e+05 1.013174e+05 1.013169e+05 1.013542e+05 1.013544e+05 1.013516e+05 1.013505e+05 1.013383e+05 1.013446e+05 1.013590e+05 1.013587e+05 1.013173e+05 1.013190e+05 1.013528e+05 1.013537e+05 1.013309e+05 1.013304e+05 1.013342e+05 1.013593e+05 1.013594e+05 1.013252e+05 1.013604e+05 1.013609e+05 1.013322e+05 1.013165e+05 1.013156e+05 1.013412e+05 1.013419e+05 1.013555e+05 1.013550e+05 1.013516e+05 1.013551e+05 1.013266e+05 1.013271e+05 1.013532e+05 1.013545e+05 1.013370e+05 1.013584e+05 1.013586e+05 1.013604e+05 1.013617e+05 1.013576e+05 1.013584e+05 1.013324e+05 1.013326e+05 1.013230e+05 1.013235e+05 1.013210e+05 1.013598e+05 1.013608e+05 1.013560e+05 1.013564e+05 1.013561e+05 1.013568e+05 1.013591e+05 1.013583e+05 1.013279e+05 1.013285e+05 1.013192e+05 1.013196e+05 1.013204e+05 1.013204e+05 1.013443e+05 1.013445e+05 1.013167e+05 1.013158e+05 1.013187e+05 1.013191e+05 1.013292e+05 1.013297e+05 1.013404e+05 1.013408e+05 1.013509e+05 1.013516e+05 1.013523e+05 1.013513e+05 1.013374e+05 1.013366e+05 1.013453e+05 1.013587e+05 1.013584e+05 1.013594e+05 1.013590e+05 1.013438e+05 1.013432e+05 1.013588e+05 1.013583e+05 1.013510e+05 1.013510e+05 1.013602e+05 1.013595e+05 1.013487e+05 1.013491e+05 1.013595e+05 1.013598e+05 1.013551e+05 1.013565e+05 1.013617e+05 1.013613e+05 1.013531e+05 1.013527e+05 1.013566e+05 1.013559e+05 1.013405e+05 1.013418e+05 1.013207e+05 1.013206e+05 1.013463e+05 1.013419e+05 1.013419e+05 1.013601e+05 1.013608e+05 1.013319e+05 1.013362e+05 1.013161e+05 1.013154e+05 1.013383e+05 1.013379e+05 1.013255e+05 1.013248e+05 1.013504e+05 1.013498e+05 1.013222e+05 1.013224e+05 1.013577e+05 1.013575e+05 1.013508e+05 1.013517e+05 1.013309e+05 1.013312e+05 1.013558e+05 1.013551e+05 1.013557e+05 1.013547e+05 1.013483e+05 1.013481e+05 1.013490e+05 1.013495e+05 1.013614e+05 1.013618e+05 1.013229e+05 1.013235e+05 1.013458e+05 1.013609e+05 1.013604e+05 1.013349e+05 1.013350e+05 1.013285e+05 1.013274e+05 1.013518e+05 1.013518e+05 1.013559e+05 1.013555e+05 1.013541e+05 1.013548e+05 1.013251e+05 1.013263e+05 1.013534e+05 1.013540e+05 1.013157e+05 1.013164e+05 1.013530e+05 1.013524e+05 1.013535e+05 1.013525e+05 1.013597e+05 1.013591e+05 1.013544e+05 1.013547e+05 1.013242e+05 1.013245e+05 1.013420e+05 1.013416e+05 1.013554e+05 1.013546e+05 1.013594e+05 1.013600e+05 1.013572e+05 1.013576e+05 1.013381e+05 1.013385e+05 1.013594e+05 1.013596e+05 1.013474e+05 1.013473e+05 1.013202e+05 1.013367e+05 1.013370e+05 1.013184e+05 1.013195e+05 1.013526e+05 1.013522e+05 1.013616e+05 1.013619e+05 1.013435e+05 1.013445e+05 1.013221e+05 1.013222e+05 1.013560e+05 1.013568e+05 1.013294e+05 1.013286e+05 1.013574e+05 1.013576e+05 1.013474e+05 1.013477e+05 1.013321e+05 1.013338e+05 1.013574e+05 1.013579e+05 1.013560e+05 1.013576e+05 1.013431e+05 1.013436e+05 1.013573e+05 1.013580e+05 1.013565e+05 1.013569e+05 1.013275e+05 1.013279e+05 1.013489e+05 1.013482e+05 1.013566e+05 1.013570e+05 1.013444e+05 1.013391e+05 1.013397e+05 1.013601e+05 1.013599e+05 1.013347e+05 1.013351e+05 1.013239e+05 1.013238e+05 1.013495e+05 1.013492e+05 1.013303e+05 1.013601e+05 1.013597e+05 1.013175e+05 1.013223e+05 1.013221e+05 1.013406e+05 1.013411e+05 1.013461e+05 1.013469e+05 1.013327e+05 1.013328e+05 1.013472e+05 1.013428e+05 1.013427e+05 1.013281e+05 1.013272e+05 1.013607e+05 1.013606e+05 1.013266e+05 1.013259e+05 1.013181e+05 1.013184e+05 1.013486e+05 1.013484e+05 1.013375e+05 1.013363e+05 1.013339e+05 1.013342e+05 1.013197e+05 1.013288e+05 1.013304e+05 1.013455e+05 1.013452e+05 1.013498e+05 1.013493e+05 1.013583e+05 1.013579e+05 1.013375e+05 1.013376e+05 1.013603e+05 1.013607e+05 1.013588e+05 1.013582e+05 1.013615e+05 1.013621e+05 1.013590e+05 1.013593e+05 1.013596e+05 1.013602e+05 1.013600e+05 1.013500e+05 1.013511e+05 1.013269e+05 1.013272e+05 1.013213e+05 1.013215e+05 1.013622e+05 1.013613e+05 1.013225e+05 1.013228e+05 1.013590e+05 1.013581e+05 1.013599e+05 1.013170e+05 1.013167e+05 1.013439e+05 1.013436e+05 1.013294e+05 1.013388e+05 1.013387e+05 1.013337e+05 1.013344e+05 1.013203e+05 1.013208e+05 1.013152e+05 1.013439e+05 1.013436e+05 1.013610e+05 1.013608e+05 1.013392e+05 1.013529e+05 1.013536e+05 1.013154e+05 1.013154e+05 1.013601e+05 1.013594e+05 1.013544e+05 1.013537e+05 1.013546e+05 1.013407e+05 1.013400e+05 1.013313e+05 1.013557e+05 1.013429e+05 1.013428e+05 1.013306e+05 1.013312e+05 1.013179e+05 1.013187e+05 1.013236e+05 1.013459e+05 1.013161e+05 1.013172e+05 1.013324e+05 1.013233e+05 1.013227e+05 1.013310e+05 1.013318e+05 1.013298e+05 1.013299e+05 1.013476e+05 1.013481e+05 1.013611e+05 1.013615e+05 1.013598e+05 1.013604e+05 1.013607e+05 1.013609e+05 1.013255e+05 1.013244e+05 1.013468e+05 1.013474e+05 1.013581e+05 1.01