<?xml version="1.0"?>
 <VTKFile type="UnstructuredGrid" version="1.0" byte_order="LittleEndian" header_type="UInt64">
  <UnstructuredGrid>
    <FieldData>
     <DataArray type="Float64" Name="TimeValue" NumberOfTuples="1" format="ascii">
0.00033
     </DataArray>
    </FieldData>
   <Piece NumberOfPoints="3662" NumberOfCells="3444">
    <PointData>
     <DataArray type="Float64" Name="pointP" format="ascii">
9.519286e+05 9.519994e+05 9.532209e+05 9.521809e+05 9.518401e+05 9.526993e+05 9.523579e+05 9.498584e+05 9.479421e+05 9.453888e+05 9.412849e+05 9.364880e+05 9.313573e+05 9.237502e+05 9.207225e+05 9.141974e+05 9.068747e+05 9.026814e+05 9.000191e+05 8.931290e+05 8.892047e+05 8.822682e+05 8.745114e+05 8.706665e+05 8.616937e+05 8.621546e+05 8.485560e+05 8.459575e+05 8.384805e+05 8.349503e+05 8.329333e+05 8.270989e+05 8.229959e+05 8.169359e+05 8.101716e+05 7.995773e+05 7.950071e+05 7.854534e+05 7.723455e+05 7.660706e+05 7.595499e+05 7.509269e+05 7.408798e+05 7.301410e+05 7.238388e+05 7.164592e+05 7.039713e+05 6.910805e+05 6.829629e+05 6.727383e+05 6.597555e+05 6.493030e+05 6.370261e+05 6.229578e+05 6.113859e+05 6.001984e+05 5.873788e+05 5.778949e+05 5.654592e+05 5.563053e+05 5.455118e+05 5.366387e+05 5.237415e+05 5.113928e+05 4.958976e+05 4.884223e+05 4.747025e+05 4.650043e+05 4.547155e+05 4.429130e+05 4.311859e+05 4.212100e+05 4.105096e+05 4.005298e+05 3.894853e+05 3.794455e+05 3.683631e+05 3.562771e+05 3.441132e+05 3.329566e+05 3.232804e+05 3.129133e+05 3.011135e+05 2.917960e+05 2.819389e+05 2.718278e+05 2.611105e+05 2.509985e+05 2.411122e+05 2.313553e+05 2.209734e+05 2.104413e+05 2.016955e+05 1.906315e+05 1.816702e+05 1.726410e+05 1.620589e+05 1.533502e+05 1.449892e+05 1.364861e+05 1.278284e+05 1.194324e+05 1.116098e+05 1.027711e+05 9.569998e+04 8.678310e+04 7.940900e+04 7.262918e+04 6.552147e+04 5.964322e+04 5.396853e+04 4.698466e+04 4.117559e+04 3.555625e+04 2.966537e+04 2.574397e+04 1.962093e+04 1.421431e+04 1.028429e+04 6.276433e+03 1.868093e+03 -3.812508e+03 -8.087289e+03 -8.087289e+03 1.217564e+05 1.460717e+05 1.575402e+05 1.587734e+05 1.618199e+05 1.664994e+05 1.702870e+05 1.702870e+05 1.708411e+05 1.726023e+05 1.740688e+05 1.740688e+05 1.786501e+05 1.786501e+05 1.842406e+05 1.871097e+05 1.882335e+05 1.921847e+05 1.963982e+05 2.070998e+05 2.070998e+05 2.193875e+05 2.193875e+05 2.264110e+05 2.414394e+05 2.450217e+05 2.545959e+05 2.593929e+05 2.731604e+05 2.829179e+05 2.922975e+05 3.076613e+05 3.123266e+05 3.291002e+05 3.464763e+05 3.603608e+05 3.730490e+05 3.730490e+05 3.858711e+05 4.126612e+05 4.126612e+05 4.435488e+05 4.546122e+05 4.546122e+05 4.812642e+05 5.116171e+05 5.116171e+05 5.458622e+05 5.689270e+05 6.108819e+05 6.108819e+05 6.433595e+05 7.136076e+05 7.614989e+05 8.511219e+05 8.867188e+05 1.198534e+05 2.163796e+05 2.163796e+05 2.163796e+05 2.219896e+05 1.850500e+05 1.850500e+05 1.850500e+05 1.925063e+05 1.925063e+05 2.311679e+05 2.311679e+05 2.311679e+05 2.332285e+05 2.295231e+05 1.063462e+05 1.969823e+05 1.969823e+05 1.911383e+05 2.183782e+05 2.183782e+05 2.183782e+05 2.140094e+05 2.102738e+05 4.456023e+05 4.456023e+05 4.456023e+05 4.317886e+05 1.427794e+05 1.427794e+05 1.427794e+05 1.391624e+05 1.353151e+05 1.353151e+05 2.100719e+05 2.100719e+05 1.849856e+05 1.810758e+05 1.198534e+05 1.198534e+05 1.620466e+05 1.620466e+05 1.620466e+05 1.594966e+05 1.538976e+05 1.538976e+05 1.579898e+05 1.978064e+05 1.978064e+05 1.978064e+05 1.983931e+05 1.914012e+05 2.075744e+05 2.069685e+05 1.571176e+05 1.571176e+05 1.571176e+05 1.484897e+05 7.909768e+04 5.788678e+04 4.050400e+04 5.788678e+04 3.264799e+05 3.264799e+05 3.264799e+05 3.864724e+05 3.864724e+05 3.864724e+05 3.714579e+05 1.375571e+04 5.908595e+03 1.375571e+04 1.375571e+04 3.199625e+05 3.199625e+05 3.199625e+05 3.219720e+05 5.033729e+05 5.033729e+05 5.033729e+05 4.886933e+05 5.976641e+05 5.976641e+05 5.976641e+05 5.652991e+05 5.652991e+05 4.625529e+04 4.625529e+04 4.625529e+04 4.257922e+04 1.004509e+05 1.004509e+05 1.004509e+05 9.208254e+04 9.208254e+04 6.853284e+05 6.853284e+05 6.853284e+05 7.032473e+05 2.483524e+05 2.483524e+05 2.483524e+05 2.457235e+05 2.457235e+05 -1.381315e+04 -1.016982e+04 6.928163e+05 6.928163e+05 6.928163e+05 6.717416e+05 7.540414e+05 7.540414e+05 7.540414e+05 7.859727e+05 7.859727e+05 3.374690e+05 3.374690e+05 3.374690e+05 3.290912e+05 7.392578e+05 7.392578e+05 7.392578e+05 7.136072e+05 3.555625e+04 4.903647e+05 4.903647e+05 4.903647e+05 3.851326e+05 3.851326e+05 3.851326e+05 3.849187e+05 2.870730e+05 2.870730e+05 2.870730e+05 2.898716e+05 1.533502e+05 1.169336e+05 1.169336e+05 1.169336e+05 1.135688e+05 2.235966e+05 2.235966e+05 2.235966e+05 2.205627e+05 2.205627e+05 -1.016982e+04 -1.016982e+04 -1.381315e+04 5.743730e+05 5.743730e+05 5.743730e+05 6.188516e+05 6.188516e+05 2.427382e+05 2.481727e+05 2.481727e+05 4.634282e+05 4.634282e+05 4.634282e+05 4.950349e+05 4.950349e+05 4.238331e+05 4.238331e+05 4.238331e+05 4.329315e+05 4.888251e+04 3.978252e+04 4.888251e+04 4.888251e+04 5.395541e+04 1.909795e+05 1.909795e+05 1.909795e+05 1.989641e+05 2.098374e+05 2.214872e+05 2.214872e+05 1.378298e+05 1.378298e+05 1.221468e+05 1.221468e+05 2.369901e+05 2.369901e+05 2.369901e+05 2.525953e+05 2.525953e+05 1.287952e+05 1.287952e+05 1.287952e+05 1.283262e+05 1.217954e+05 1.745092e+05 1.584543e+05 3.080430e+05 3.080430e+05 3.080430e+05 3.023733e+05 3.599067e+05 3.599067e+05 3.599067e+05 3.518141e+05 2.495169e+05 2.495169e+05 2.495169e+05 4.076649e+05 4.076649e+05 4.076649e+05 1.410211e+05 1.410211e+05 1.410211e+05 4.697386e+05 4.697386e+05 4.697386e+05 5.054615e+04 5.054615e+04 5.054615e+04 4.960038e+04 4.296484e+04 1.487014e+05 1.487014e+05 1.487014e+05 6.332525e+04 6.332525e+04 6.464206e+04 2.882165e+05 2.882165e+05 2.882165e+05 2.972743e+05 1.759794e+05 1.759794e+05 1.759794e+05 1.750687e+05 1.333431e+05 1.333431e+05 6.066120e+05 6.066120e+05 6.066120e+05 5.832132e+05 1.309356e+04 1.309356e+04 1.309356e+04 1.385987e+04 7.975902e+04 7.975902e+04 7.975902e+04 8.149658e+04 5.665449e+05 5.665449e+05 5.665449e+05 3.607982e+05 3.607982e+05 3.607982e+05 3.606105e+05 1.971785e+05 1.971785e+05 1.971785e+05 1.976362e+05 1.959223e+05 1.959223e+05 1.959223e+05 1.909193e+05 2.669625e+05 2.669625e+05 2.669625e+05 2.719949e+05 7.961340e+05 7.961340e+05 7.961340e+05 7.996126e+05 7.996126e+05 7.996126e+05 7.852046e+05 7.813800e+05 7.813800e+05 7.813800e+05 7.600339e+05 7.407406e+05 7.407406e+05 7.193292e+05 4.141042e+05 4.141042e+05 4.053202e+05 7.724989e+04 7.724989e+04 8.001487e+04 2.453303e+05 2.453303e+05 2.453303e+05 2.472630e+05 3.230658e+05 3.230658e+05 3.230658e+05 8.056331e+05 8.056331e+05 8.020853e+05 3.661677e+05 3.661677e+05 3.666253e+05 2.553998e+05 7.554358e+05 7.543318e+05 1.059934e+05 1.059934e+05 1.002411e+05 8.473276e+05 8.473276e+05 8.473276e+05 8.807573e+05 3.204991e+05 3.204991e+05 6.743278e+05 6.743278e+05 6.743278e+05 8.411697e+05 8.411697e+05 8.411697e+05 8.345319e+05 8.345319e+05 7.643014e+05 7.643014e+05 7.643014e+05 8.001671e+05 7.432130e+05 7.432130e+05 7.432130e+05 7.087444e+05 7.087444e+05 1.397715e+05 1.397715e+05 1.397715e+05 1.333893e+05 1.333893e+05 6.048996e+05 6.048996e+05 6.346488e+05 6.346488e+05 7.428854e+05 7.428854e+05 7.428854e+05 6.270702e+05 6.270702e+05 6.270702e+05 6.691414e+05 1.111067e+05 1.111067e+05 1.111067e+05 1.101175e+05 1.101175e+05 1.772138e+03 1.772138e+03 1.772138e+03 9.780110e+03 9.780110e+03 2.092506e+05 2.092506e+05 2.092506e+05 2.249381e+05 2.249381e+05 3.589716e+05 3.589716e+05 3.589716e+05 3.634612e+05 3.634612e+05 4.243463e+05 4.243463e+05 4.243463e+05 4.546847e+05 4.064673e+05 4.064673e+05 4.650637e+05 4.650637e+05 4.650637e+05 4.458795e+05 4.458795e+05 7.991077e+04 7.991077e+04 7.991077e+04 8.570202e+04 8.570202e+04 1.701077e+05 1.701077e+05 1.701077e+05 1.881223e+05 1.881223e+05 1.736639e+05 1.736639e+05 1.564953e+05 1.564953e+05 2.713667e+05 2.713667e+05 2.855772e+05 2.855772e+05 1.760825e+05 1.581069e+05 1.581069e+05 2.536485e+05 2.536485e+05 2.536485e+05 2.570620e+05 2.570620e+05 2.271550e+05 2.271550e+05 1.401326e+05 1.401326e+05 1.401326e+05 1.433007e+05 2.063103e+05 9.493468e+04 8.854802e+04 1.678748e+05 1.678748e+05 1.678748e+05 1.700193e+05 1.700193e+05 9.043118e+04 9.043118e+04 8.222047e+04 7.879859e+04 8.288297e+04 4.529752e+05 4.529752e+05 4.529752e+05 4.394067e+05 4.921610e+05 4.921610e+05 4.797265e+05 2.123901e+05 2.123901e+05 2.123901e+05 1.953909e+04 1.953909e+04 1.953909e+04 1.648919e+04 1.574803e+04 7.653694e+05 7.653694e+05 7.653694e+05 3.015172e+05 8.350554e+04 2.984707e+04 2.984707e+04 7.565270e+05 7.565270e+05 4.747025e+05 4.554195e+05 4.554195e+05 4.554195e+05 5.336898e+05 5.336898e+05 5.336898e+05 5.366769e+05 9.532209e+05 9.080453e+05 9.080453e+05 8.896568e+05 8.896568e+05 8.896568e+05 9.111785e+05 1.465560e+05 1.465560e+05 1.418412e+05 1.726410e+05 9.267389e+05 9.267389e+05 8.067389e+05 8.067389e+05 2.043260e+05 2.043260e+05 5.894051e+04 5.894051e+04 5.894051e+04 8.913980e+05 8.913980e+05 9.023092e+05 -1.016623e+04 -1.016623e+04 -6.367987e+03 7.803267e+05 8.738337e+05 8.698242e+05 8.698242e+05 8.661070e+05 4.320913e+05 4.320913e+05 4.320913e+05 4.473071e+05 6.493030e+05 6.396181e+05 9.521809e+05 8.895220e+05 7.106924e+05 7.106924e+05 6.405979e+05 6.405979e+05 6.405979e+05 6.585776e+05 1.917561e+05 1.917561e+05 1.822402e+05 1.822402e+05 3.814070e+05 8.514186e+05 8.514186e+05 8.218077e+05 5.036183e+05 5.036183e+05 5.036183e+05 4.698466e+04 9.498584e+05 8.694481e+05 5.710687e+05 5.710687e+05 5.710687e+05 5.614423e+05 4.895901e+04 4.895901e+04 4.821100e+04 5.481797e+05 5.481797e+05 5.652286e+05 9.722760e+04 9.722760e+04 2.279805e+05 2.279805e+05 9.184954e+05 7.723455e+05 7.488226e+05 5.403318e+05 8.668651e+05 8.668651e+05 6.578597e+05 7.046808e+04 6.708590e+04 6.708590e+04 1.643565e+05 1.643565e+05 1.579028e+05 1.579028e+05 8.242315e+05 8.242315e+05 4.792324e+05 8.681598e+05 4.242930e+05 4.242930e+05 4.209795e+05 5.861679e+05 5.861679e+05 5.861679e+05 8.958315e+05 8.958315e+05 2.836911e+05 3.028319e+04 3.028319e+04 6.196469e+05 6.019848e+05 7.035391e+05 3.672220e+05 -3.812508e+03 1.868093e+03 8.359085e+05 5.121151e+05 7.149265e+03 7.149265e+03 7.149265e+03 1.300350e+03 7.855172e+05 -7.157663e+03 7.488661e+04 7.488661e+04 6.910805e+05 6.206696e+05 1.244661e+05 1.244661e+05 8.231584e+05 8.231584e+05 2.276183e+04 2.276183e+04 1.659687e+05 4.670689e+05 4.670689e+05 1.027833e+05 1.650471e+05 2.760118e+05 2.809424e+05 4.629885e+05 4.629885e+05 4.294940e+05 4.294940e+05 8.777248e+04 2.710121e+05 8.733517e+05 5.141050e+03 2.653025e+05 6.345546e+05 7.382144e+05 1.281525e+03 1.159605e+05 1.236035e+05 1.567538e+05 6.091533e+05 5.897799e+05 8.758468e+05 8.758468e+05 4.612804e+05 4.315602e+05 7.320792e+05 1.382722e+05 7.218631e+05 7.218631e+05 6.472829e+05 6.472829e+05 6.472829e+05 2.344994e+05 4.331118e+05 5.966688e+04 7.450390e+05 7.471570e+05 7.309199e+05 7.309199e+05 7.309199e+05 5.482376e+05 5.482376e+05 5.482376e+05 5.737716e+05 8.708528e+05 4.226500e+05 4.132517e+05 2.476955e+05 2.476955e+05 2.476955e+05 6.145580e+05 6.145580e+05 6.145580e+05 6.517674e+05 5.196102e+05 5.196102e+05 5.285069e+05 3.841984e+05 3.685445e+05 8.837828e+04 9.204531e+04 7.254180e+04 7.254180e+04 6.970734e+04 3.008341e+04 3.008341e+04 2.812527e+04 2.812527e+04 1.442756e+05 8.379251e+05 2.137427e+05 8.489392e+05 8.164760e+05 8.193674e+05 8.193674e+05 7.878367e+05 7.878367e+05 6.874896e+05 6.972255e+05 3.416815e+05 7.533328e+05 7.533328e+05 6.269961e+05 6.269961e+05 7.229154e+05 2.964587e+05 2.964587e+05 2.964587e+05 7.052880e+05 2.968354e+05 4.078706e+04 4.078706e+04 4.078706e+04 4.383123e+04 4.383123e+04 5.462776e+05 5.404358e+05 7.929193e+05 7.929193e+05 8.337805e+05 1.684289e+04 2.059304e+04 5.019195e+05 5.019195e+05 4.344824e+05 5.627704e+05 7.573548e+05 5.709266e+04 5.709266e+04 5.709266e+04 6.468666e+04 8.170463e+05 8.170463e+05 7.931540e+05 8.131222e+05 7.597001e+05 7.597001e+05 1.665922e+05 1.665922e+05 1.665922e+05 1.872756e+05 7.900885e+04 1.865563e+05 1.778319e+05 1.778319e+05 3.977109e+05 3.277335e+05 3.277335e+05 3.406887e+05 6.290944e+05 6.012906e+05 6.012906e+05 7.423756e+05 7.423756e+05 -9.940744e+03 3.813125e+05 3.813125e+05 2.349579e+05 2.197135e+05 2.197135e+05 3.126454e+05 3.098584e+05 4.082129e+05 7.043689e+05 7.548527e+04 7.548527e+04 7.548527e+04 1.259083e+05 7.401245e+05 7.210510e+05 2.794796e+05 2.794796e+05 6.755176e+05 6.755176e+05 6.755176e+05 4.959721e+05 4.959721e+05 4.959721e+05 4.202243e+05 1.524223e+05 4.831060e+05 4.831060e+05 4.831060e+05 2.478672e+04 7.882101e+05 1.298860e+05 1.419816e+05 3.896062e+05 3.746368e+05 3.746368e+05 4.737455e+05 3.492665e+05 7.425506e+05 7.331086e+05 7.331086e+05 3.252098e+05 6.880055e+05 6.880055e+05 7.000682e+05 6.903854e+05 6.964807e+05 6.656533e+05 6.656533e+05 6.825689e+05 4.562203e+05 4.562203e+05 4.563721e+05 4.563721e+05 6.524321e+05 6.524321e+05 6.174653e+05 6.174653e+05 2.974891e+05 7.465874e+05 6.993091e+05 3.525280e+05 3.525280e+05 5.955276e+05 1.708745e+03 6.221346e+05 6.293566e+05 5.698423e+05 5.698423e+05 2.368132e+05 8.369691e+04 5.160443e+05 6.572792e+05 6.565840e+05 6.565840e+05 7.133182e+04 4.990891e+05 4.990891e+05 5.299430e+05 2.790273e+05 2.790273e+05 2.790273e+05 1.921560e+05 4.279843e+05 4.956327e+04 4.956327e+04 5.111740e+04 5.775599e+05 5.775599e+05 4.828612e+05 6.667501e+05 6.667501e+05 6.667501e+05 3.816983e+05 6.966532e+05 4.120177e+05 5.106742e+05 5.409819e+05 3.335161e+05 3.191942e+05 3.191942e+05 1.626345e+05 1.560945e+05 1.560945e+05 3.281582e+04 2.744341e+04 1.463057e+05 1.385587e+05 1.385587e+05 6.497988e+05 6.497988e+05 6.497988e+05 6.405467e+05 6.059480e+05 6.059480e+05 2.028328e+05 6.971163e+05 5.355990e+05 3.476702e+05 3.476702e+05 -7.237598e+03 -7.237598e+03 1.044981e+05 7.064756e+05 7.064756e+05 2.251703e+05 5.836755e+05 5.534090e+05 5.534090e+05 3.880494e+05 3.880494e+05 5.227880e+05 5.227880e+05 3.290866e+05 3.040405e+05 1.199207e+05 4.965893e+05 6.564706e+05 6.564706e+05 6.081085e+05 4.522084e+05 4.522084e+05 4.218927e+05 4.218927e+05 -7.447291e+03 2.999729e+05 1.670963e+05 1.756059e+05 3.514265e+05 3.402261e+05 1.022655e+05 4.118009e+05 4.118009e+05 4.118009e+05 6.227251e+05 6.227251e+05 6.542393e+05 1.169675e+05 1.169675e+05 1.169675e+05 7.141148e+04 7.141148e+04 5.299121e+05 5.299121e+05 5.502390e+05 6.346358e+05 6.161158e+05 2.702167e+05 5.693241e+05 5.693241e+05 5.540752e+05 3.276082e+05 5.910237e+05 5.910237e+05 3.996394e+05 1.547115e+05 1.547115e+05 1.547115e+05 1.406857e+05 4.661704e+05 8.537642e+03 1.967966e+04 3.347677e+04 5.425534e+04 4.493208e+05 4.509529e+05 1.942896e+05 6.586424e+05 5.702946e+05 5.702946e+05 5.702946e+05 5.813927e+05 1.815787e+05 6.084815e+05 5.390040e+05 5.390814e+05 3.848036e+05 3.848036e+05 3.848036e+05 2.536081e+05 2.536081e+05 2.536081e+05 2.845124e+05 2.845124e+05 5.459076e+05 5.434971e+05 5.434971e+05 5.434971e+05 2.778730e+05 4.797897e+05 4.797897e+05 4.797897e+05 3.141260e+05 3.993939e+05 3.993939e+05 3.993939e+05 9.825327e+04 9.825327e+04 9.825327e+04 4.744625e+04 1.668226e+05 5.236489e+05 5.236489e+05 4.833296e+05 5.945849e+05 2.214803e+05 2.015587e+05 2.015587e+05 2.015587e+05 3.403014e+05 5.108116e+05 5.054824e+05 1.109897e+05 1.013984e+05 3.097749e+05 1.748447e+04 5.176726e+05 5.176726e+05 5.539890e+05 5.651931e+05 4.444101e+05 2.869782e+05 5.262564e+05 1.950404e+05 1.950404e+05 2.699694e+05 3.213295e+05 2.442760e+05 2.442760e+05 2.389903e+05 2.215234e+05 8.002115e+04 8.002115e+04 3.759751e+05 3.759751e+05 3.873508e+05 4.238055e+05 5.064372e+05 4.943410e+05 2.884135e+05 3.012781e+05 4.370955e+05 5.689216e+05 5.428097e+05 9.346179e+04 3.778110e+04 3.778110e+04 3.778110e+04 4.997187e+05 4.997187e+05 3.518400e+05 3.518400e+05 3.399633e+05 4.750395e+05 4.228152e+05 4.012910e+05 4.012910e+05 1.519885e+05 1.519885e+05 1.645841e+05 1.262415e+05 1.262415e+05 2.564506e+05 1.189540e+05 1.066409e+05 2.050772e+05 1.770634e+05 2.139618e+05 2.310845e+05 4.086311e+05 3.480616e+05 3.480616e+05 3.480616e+05 3.776900e+05 4.754459e+05 5.142426e+05 2.807155e+05 4.612189e+05 3.386618e+05 3.386618e+05 3.569431e+05 3.089202e+05 3.089202e+05 2.957432e+05 2.957432e+05 2.288978e+05 2.355551e+05 4.268384e+04 4.978599e+04 2.847847e+05 1.419872e+05 3.259495e+05 3.259495e+05 2.511742e+05 2.511742e+05 2.511742e+05 2.373473e+05 4.529295e+05 4.345718e+05 2.632832e+05 9.712345e+04 2.051843e+05 3.710383e+05 2.751871e+05 2.751871e+05 3.261354e+05 3.261354e+05 1.224014e+05 1.224014e+05 3.045253e+05 4.512460e+05 4.086350e+05 4.086350e+05 3.891099e+05 6.053676e+04 3.224934e+05 4.239287e+05 2.106412e+05 2.106412e+05 1.985929e+05 2.519840e+05 2.629163e+05 3.870317e+05 3.870317e+05 2.124317e+05 2.124317e+05 1.437168e+05 1.259450e+05 1.259450e+05 2.335434e+05 3.629939e+05 1.023451e+05 3.050952e+05 3.461882e+05 3.766469e+05 6.392018e+04 1.381193e+05 3.142699e+05 3.142699e+05 3.421132e+05 7.474259e+04 5.395541e+04 1.106437e+05 1.106437e+05 1.106437e+05 1.275108e+05 2.332085e+05 2.332085e+05 3.341298e+05 3.341298e+05 3.125329e+05 3.125329e+05 2.511348e+05 8.694459e+04 7.765364e+04 2.719561e+05 2.719561e+05 2.719561e+05 2.683710e+05 1.879514e+05 1.879514e+05 2.718675e+05 2.718675e+05 2.347825e+05 2.347825e+05 2.292396e+05 5.286577e+04 5.286577e+04 5.286577e+04 4.097508e+04 2.180747e+05 2.003834e+05 2.003834e+05 9.669775e+04 1.210148e+05 5.788678e+04 6.814809e+04 8.355569e+04 8.355569e+04 2.049684e+05 2.857539e+05 1.483883e+05 1.516106e+05 2.022543e+05 1.353534e+05 1.353534e+05 2.395442e+05 2.353382e+05 2.919674e+05 1.046001e+05 1.046001e+05 8.925918e+04 2.663809e+05 2.663809e+05 2.427539e+05 1.019295e+05 8.961517e+04 8.961517e+04 8.961517e+04 7.529898e+04 2.273673e+05 8.101040e+04 1.159672e+05 1.793608e+05 8.101040e+04 1.276975e+05 9.491253e+04 9.491253e+04 1.662515e+05 1.600323e+05 1.217128e+05 1.157703e+05 1.615374e+05 1.615374e+05 1.615374e+05 1.165549e+05 1.711957e+05 1.711957e+05 1.711957e+05 1.521334e+05 1.521334e+05 1.398049e+05 1.236689e+05 1.598302e+05 1.328465e+05 1.283763e+05 1.504342e+05 1.372259e+05 1.445466e+05 1.585766e+05 1.585766e+05 1.214985e+05 1.214985e+05 1.298406e+05 1.607273e+05 1.607273e+05 1.607273e+05 1.645061e+05 1.645061e+05 1.494793e+05 1.494793e+05 1.494793e+05 3.470783e+05 3.574637e+05 3.574637e+05 3.574637e+05 1.063462e+05 1.063462e+05 3.626651e+05 3.626651e+05 3.626651e+05 3.736477e+05 3.736477e+05 1.265527e+05 1.145042e+05 3.414643e+05 3.414643e+05 3.318525e+05 1.053994e+05 3.813477e+05 3.719645e+05 3.748314e+05 9.493468e+04 1.104803e+05 1.137929e+05 1.716091e+05 1.716091e+05 1.740770e+05 6.166425e+05 2.543803e+05 2.543803e+05 2.543803e+05 2.351153e+05 3.093268e+05 3.093268e+05 3.093268e+05 3.158201e+05 3.091599e+05 3.091599e+05 4.728725e+05 2.699922e+05 2.699922e+05 2.699922e+05 2.681549e+05 1.923293e+05 5.689177e+05 5.689177e+05 5.689177e+05 3.060708e+05 4.479139e+05 4.479139e+05 4.041642e+05 4.041642e+05 4.041642e+05 2.892007e+05 2.892007e+05 2.892007e+05 3.216569e+05 2.918193e+05 2.918193e+05 2.964121e+05 3.414685e+05 2.514369e+05 2.955533e+05 2.831247e+05 2.785976e+05 2.431541e+05 2.292751e+05 2.634502e+05 2.183960e+05 2.024784e+05 2.161692e+05 2.161692e+05 1.974035e+05 1.974035e+05 1.974035e+05 1.702870e+05 5.126641e+05 3.307311e+05 3.307311e+05 2.921513e+05 2.745597e+05 2.462397e+05 2.462397e+05 4.441349e+05 4.441349e+05 3.878499e+05 3.878499e+05 3.402347e+05 3.203480e+05 2.627037e+05 2.285389e+05 1.989091e+05 1.989091e+05 1.729447e+05 1.818567e+05 5.161468e+05 5.161468e+05 2.409070e+05 2.033965e+05 2.033965e+05 2.181245e+05 2.049408e+05 1.949002e+05 1.842376e+05 1.842376e+05 1.842376e+05 1.862222e+05 1.862222e+05 1.808889e+05 1.788035e+05 1.788035e+05 1.788035e+05 2.005207e+05 2.005207e+05 1.143149e+05 1.748176e+05 1.748176e+05 1.769214e+05 1.737294e+05 1.737294e+05 1.189103e+05 1.309352e+05 1.193571e+05 1.723203e+05 1.723203e+05 1.723203e+05 1.691742e+05 1.812752e+05 1.462047e+05 1.707675e+05 3.741429e+05 1.639128e+05 1.578566e+05 1.671037e+05 1.664994e+05 3.855797e+05 4.234023e+05 4.234023e+05 4.545829e+05 4.545829e+05 4.905483e+05 4.905483e+05 4.905483e+05 5.229501e+05 5.438108e+05 5.438108e+05 5.438108e+05 6.711920e+05 1.710713e+05 1.749104e+05 1.749104e+05 1.749104e+05 1.787994e+05 1.843902e+05 1.878431e+05 2.379930e+05 1.827983e+05 1.888080e+05 1.914852e+05 1.899669e+05 1.972634e+05 1.945385e+05 1.874096e+05 1.759274e+05 1.824660e+05 1.770217e+05 1.770217e+05 1.728399e+05 1.728399e+05 1.827799e+05 1.767046e+05 1.710736e+05 1.693586e+05 3.956201e+05 4.162832e+05 5.206164e+05 7.653366e+05 9.519286e+05 9.530626e+05 9.545101e+05 9.547329e+05 9.538691e+05 9.516852e+05 9.506564e+05 9.477141e+05 9.463148e+05 9.462149e+05 9.204390e+05 1.470080e+05 1.470080e+05 1.593533e+05 1.593533e+05 1.623361e+05 1.667629e+05 1.697190e+05 1.697190e+05 1.697190e+05 1.700333e+05 1.656080e+05 1.656080e+05 1.584571e+05 1.584571e+05 1.584571e+05 1.965211e+05 1.965211e+05 1.965211e+05 1.998278e+05 1.998278e+05 1.558880e+05 1.558880e+05 1.558880e+05 1.599575e+05 1.470080e+05 1.464546e+05 1.464546e+05 1.692895e+05 1.787255e+05 1.787255e+05 8.440520e+05 8.440520e+05 8.440520e+05 8.953484e+05 8.953484e+05 1.578786e+05 1.640671e+05 1.640671e+05 8.769510e+05 8.769510e+05 8.483750e+05 4.558051e+05 4.558051e+05 4.558051e+05 3.807354e+05 3.807354e+05 3.807354e+05 3.617984e+05 3.617984e+05 1.731685e+05 6.294405e+05 6.294405e+05 6.294405e+05 6.156699e+05 9.039039e+05 9.039039e+05 9.039039e+05 8.848375e+05 8.506806e+05 7.357211e+05 7.357211e+05 7.357211e+05 9.000512e+05 8.708251e+05 8.708251e+05 8.708251e+05 8.926204e+05 4.202212e+05 4.450531e+05 4.202212e+05 4.202212e+05 2.067894e+05 2.067894e+05 1.440847e+05 4.871271e+05 4.871271e+05 9.198133e+05 9.462149e+05 8.937365e+05 8.937365e+05 8.926204e+05 7.614989e+05 7.136076e+05 8.467181e+05 8.166179e+05 7.799797e+05 7.799797e+05 7.926088e+05 7.433637e+05 7.816060e+05 7.926088e+05 7.485523e+05 6.810858e+05 6.810858e+05 6.999812e+05 6.999812e+05 7.294790e+05 6.804355e+05 6.575975e+05 6.382576e+05 6.382576e+05 6.151932e+05 6.495913e+05 5.872564e+05 5.407425e+05 5.407425e+05 4.450531e+05 3.907410e+05 3.907410e+05 3.698604e+05 3.698604e+05 3.552399e+05 3.423615e+05 3.010860e+05 1.855487e+05 1.440847e+05 1.440847e+05 1.774627e+05 1.774627e+05 1.774627e+05 1.760590e+05 1.634446e+05 1.804786e+05 1.804786e+05 1.804786e+05 1.797158e+05 1.913736e+05 1.913736e+05 1.913736e+05 1.898066e+05 1.871097e+05 2.256910e+05 2.256910e+05 2.256910e+05 2.311950e+05 2.718266e+05 2.718266e+05 2.718266e+05 2.693997e+05 2.605501e+05 2.341311e+05 2.341311e+05 2.285728e+05 3.221768e+05 3.221768e+05 3.221768e+05 3.291002e+05 3.291002e+05 3.065892e+05 3.065892e+05 3.065892e+05 2.014389e+05 2.014389e+05 3.038643e+05 3.038643e+05 3.038643e+05 2.975868e+05 2.975868e+05 4.087543e+05 4.087543e+05 4.087543e+05 3.590443e+05 3.590443e+05 3.590443e+05 2.771702e+05 2.771702e+05 2.771702e+05 1.888961e+05 3.550091e+05 3.475467e+05 3.003608e+05 2.922975e+05 4.043746e+05 3.671714e+05 3.671714e+05 2.656673e+05 2.656673e+05 2.975994e+05 2.849642e+05 3.372514e+05 3.372514e+05 3.372514e+05 4.124310e+05 4.871271e+05 3.016825e+05 2.505446e+05 2.505446e+05 2.505446e+05 3.323200e+05 2.848841e+05 2.528368e+05 2.360957e+05 2.201068e+05 2.652637e+05 2.201939e+05 2.155357e+05 2.126855e+05 2.126855e+05 1.700419e+05 4.812642e+05 4.812642e+05 3.524827e+05 2.450217e+05 2.450217e+05 3.295311e+05 5.680293e+05 2.282438e+05 2.282438e+05 2.051595e+05 2.051595e+05 2.051595e+05 3.125211e+05 3.708517e+05 2.073850e+05 2.246215e+05 2.063244e+05 1.966235e+05 1.962136e+05 1.962136e+05 1.962136e+05 1.875621e+05 1.875621e+05 1.913946e+05 1.902816e+05 1.902816e+05 1.835057e+05 1.823139e+05 1.731685e+05 1.790286e+05 1.790286e+05 1.684081e+05 1.716149e+05 3.647900e+05 4.663879e+05 4.663879e+05 5.351609e+05 5.351609e+05 4.199505e+05 1.641768e+05 2.545959e+05 3.455192e+05 3.730490e+05 3.799064e+05 4.037750e+05 4.037750e+05 4.343004e+05 4.343004e+05 4.343004e+05 4.634388e+05 4.890906e+05 5.116171e+05 5.458622e+05 5.458622e+05 5.486299e+05 6.917388e+05 2.070998e+05 2.193875e+05 3.959704e+05 5.689270e+05 2.264110e+05 2.351046e+05 2.040685e+05 1.963982e+05 2.098159e+05 1.978549e+05 1.842406e+05 2.180960e+05 1.858559e+05 1.858559e+05 1.823112e+05 1.816739e+05 1.740688e+05 1.738164e+05 1.738164e+05 1.726023e+05 1.761565e+05 1.768456e+05 3.841612e+05 4.280750e+05 4.911260e+05 5.983523e+05 4.804324e+05 5.134106e+05 4.264322e+05 5.695457e+05 5.072484e+05 1.714962e+05 1.593533e+05 9.519286e+05 9.519994e+05 9.532209e+05 9.521809e+05 9.518401e+05 9.526993e+05 9.523579e+05 9.498584e+05 9.479421e+05 9.453888e+05 9.412849e+05 9.364880e+05 9.313573e+05 9.237502e+05 9.207225e+05 9.141974e+05 9.068747e+05 9.026814e+05 9.000191e+05 8.931290e+05 8.892047e+05 8.822682e+05 8.745114e+05 8.706665e+05 8.616937e+05 8.621546e+05 8.485560e+05 8.459575e+05 8.384805e+05 8.349503e+05 8.329333e+05 8.270989e+05 8.229959e+05 8.169359e+05 8.101716e+05 7.995773e+05 7.950071e+05 7.854534e+05 7.723455e+05 7.660706e+05 7.595499e+05 7.509269e+05 7.408798e+05 7.301410e+05 7.238388e+05 7.164592e+05 7.039713e+05 6.910805e+05 6.829629e+05 6.727383e+05 6.597555e+05 6.493030e+05 6.370261e+05 6.229578e+05 6.113859e+05 6.001984e+05 5.873788e+05 5.778949e+05 5.654592e+05 5.563053e+05 5.455118e+05 5.366387e+05 5.237415e+05 5.113928e+05 4.958976e+05 4.884223e+05 4.747025e+05 4.650043e+05 4.547155e+05 4.429130e+05 4.311859e+05 4.212100e+05 4.105096e+05 4.005298e+05 3.894853e+05 3.794455e+05 3.683631e+05 3.562771e+05 3.441132e+05 3.329566e+05 3.232804e+05 3.129133e+05 3.011135e+05 2.917960e+05 2.819389e+05 2.718278e+05 2.611105e+05 2.509985e+05 2.411122e+05 2.313553e+05 2.209734e+05 2.104413e+05 2.016955e+05 1.906315e+05 1.816702e+05 1.726410e+05 1.620589e+05 1.533502e+05 1.449892e+05 1.364861e+05 1.278284e+05 1.194324e+05 1.116098e+05 1.027711e+05 9.569998e+04 8.678310e+04 7.940900e+04 7.262918e+04 6.552147e+04 5.964322e+04 5.396853e+04 4.698466e+04 4.117559e+04 3.555625e+04 2.966537e+04 2.574397e+04 1.962093e+04 1.421431e+04 1.028429e+04 6.276433e+03 1.868093e+03 -3.812508e+03 -8.087289e+03 -8.087289e+03 1.217564e+05 1.217564e+05 1.558778e+05 1.587734e+05 1.618199e+05 1.664994e+05 1.702870e+05 1.702870e+05 1.708411e+05 1.726023e+05 1.740688e+05 1.740688e+05 1.786501e+05 1.786501e+05 1.842406e+05 1.871097e+05 1.882335e+05 1.921847e+05 1.963982e+05 2.070998e+05 2.070998e+05 2.193875e+05 2.193875e+05 2.264110e+05 2.414394e+05 2.450217e+05 2.545959e+05 2.593929e+05 2.731604e+05 2.829179e+05 2.922975e+05 3.076613e+05 3.123266e+05 3.291002e+05 3.464763e+05 3.603608e+05 3.730490e+05 3.730490e+05 3.858711e+05 4.126612e+05 4.126612e+05 4.435488e+05 4.546122e+05 4.546122e+05 4.812642e+05 5.116171e+05 5.116171e+05 5.458622e+05 5.689270e+05 6.108819e+05 6.108819e+05 6.433595e+05 7.136076e+05 7.614989e+05 8.511219e+05 8.867188e+05 1.198534e+05 2.163796e+05 2.163796e+05 2.163796e+05 2.219896e+05 1.850500e+05 1.850500e+05 1.850500e+05 1.925063e+05 1.925063e+05 2.311679e+05 2.311679e+05 2.311679e+05 2.332285e+05 2.295231e+05 1.063462e+05 1.969823e+05 1.969823e+05 1.911383e+05 2.183782e+05 2.183782e+05 2.183782e+05 2.140094e+05 2.102738e+05 4.456023e+05 4.456023e+05 4.456023e+05 4.317886e+05 1.427794e+05 1.427794e+05 1.427794e+05 1.391624e+05 1.353151e+05 1.353151e+05 2.100719e+05 2.100719e+05 1.849856e+05 1.810758e+05 1.198534e+05 1.198534e+05 1.620466e+05 1.620466e+05 1.620466e+05 1.594966e+05 1.538976e+05 1.538976e+05 1.579898e+05 1.978064e+05 1.978064e+05 1.978064e+05 1.983931e+05 1.914012e+05 2.075744e+05 2.069685e+05 1.571176e+05 1.571176e+05 1.571176e+05 1.484897e+05 7.909768e+04 5.788678e+04 4.050400e+04 5.788678e+04 3.264799e+05 3.264799e+05 3.264799e+05 3.864724e+05 3.864724e+05 3.864724e+05 3.714579e+05 1.375571e+04 5.908595e+03 1.375571e+04 1.375571e+04 3.199625e+05 3.199625e+05 3.199625e+05 3.219720e+05 5.033729e+05 5.033729e+05 5.033729e+05 4.886933e+05 5.976641e+05 5.976641e+05 5.976641e+05 5.652991e+05 5.652991e+05 4.625529e+04 4.625529e+04 4.625529e+04 4.257922e+04 1.004509e+05 1.004509e+05 1.004509e+05 9.208254e+04 9.208254e+04 6.853284e+05 6.853284e+05 6.853284e+05 7.032473e+05 2.483524e+05 2.483524e+05 2.483524e+05 2.457235e+05 2.457235e+05 -1.381315e+04 -1.016982e+04 6.928163e+05 6.928163e+05 6.928163e+05 6.717416e+05 7.540414e+05 7.540414e+05 7.540414e+05 7.859727e+05 7.859727e+05 3.374690e+05 3.374690e+05 3.374690e+05 3.290912e+05 7.392578e+05 7.392578e+05 7.392578e+05 7.136072e+05 3.555625e+04 4.903647e+05 4.903647e+05 4.903647e+05 3.851326e+05 3.851326e+05 3.851326e+05 3.849187e+05 2.870730e+05 2.870730e+05 2.870730e+05 2.898716e+05 1.533502e+05 1.169336e+05 1.169336e+05 1.169336e+05 1.135688e+05 2.235966e+05 2.235966e+05 2.235966e+05 2.205627e+05 2.205627e+05 -1.016982e+04 -1.016982e+04 -1.381315e+04 5.743730e+05 5.743730e+05 5.743730e+05 6.188516e+05 6.188516e+05 2.427382e+05 2.481727e+05 2.481727e+05 4.634282e+05 4.634282e+05 4.634282e+05 4.950349e+05 4.950349e+05 4.238331e+05 4.238331e+05 4.238331e+05 4.329315e+05 4.888251e+04 3.978252e+04 4.888251e+04 4.888251e+04 5.395541e+04 1.909795e+05 1.909795e+05 1.909795e+05 1.989641e+05 2.098374e+05 2.214872e+05 2.214872e+05 1.378298e+05 1.378298e+05 1.221468e+05 1.221468e+05 2.369901e+05 2.369901e+05 2.369901e+05 2.525953e+05 2.525953e+05 1.287952e+05 1.287952e+05 1.287952e+05 1.283262e+05 1.217954e+05 1.745092e+05 1.584543e+05 3.080430e+05 3.080430e+05 3.080430e+05 3.023733e+05 3.599067e+05 3.599067e+05 3.599067e+05 3.518141e+05 2.495169e+05 2.495169e+05 2.495169e+05 4.076649e+05 4.076649e+05 4.076649e+05 1.410211e+05 1.410211e+05 1.410211e+05 4.697386e+05 4.697386e+05 4.697386e+05 5.054615e+04 5.054615e+04 5.054615e+04 4.960038e+04 4.296484e+04 1.487014e+05 1.487014e+05 1.487014e+05 6.332525e+04 6.332525e+04 6.464206e+04 2.882165e+05 2.882165e+05 2.882165e+05 2.972743e+05 1.759794e+05 1.759794e+05 1.759794e+05 1.750687e+05 1.333431e+05 1.333431e+05 6.066120e+05 6.066120e+05 6.066120e+05 5.832132e+05 1.309356e+04 1.309356e+04 1.309356e+04 1.385987e+04 7.975902e+04 7.975902e+04 7.975902e+04 8.149658e+04 5.665449e+05 5.665449e+05 5.665449e+05 3.607982e+05 3.607982e+05 3.607982e+05 3.606105e+05 1.971785e+05 1.971785e+05 1.971785e+05 1.976362e+05 1.959223e+05 1.959223e+05 1.959223e+05 1.909193e+05 2.669625e+05 2.669625e+05 2