<?xml version="1.0"?>
 <VTKFile type="UnstructuredGrid" version="1.0" byte_order="LittleEndian" header_type="UInt64">
  <UnstructuredGrid>
    <FieldData>
     <DataArray type="Float64" Name="TimeValue" NumberOfTuples="1" format="ascii">
0.00033
     </DataArray>
    </FieldData>
   <Piece NumberOfPoints="3632" NumberOfCells="3379">
    <PointData>
     <DataArray type="Float64" Name="pointP" format="ascii">
9.376891e+05 9.376891e+05 9.364954e+05 9.352237e+05 9.318642e+05 9.289355e+05 9.214405e+05 9.167155e+05 9.114426e+05 9.047887e+05 8.995743e+05 8.932371e+05 8.861941e+05 8.798393e+05 8.744730e+05 8.647644e+05 8.593114e+05 8.519524e+05 8.488790e+05 8.415983e+05 8.358708e+05 8.276638e+05 8.191787e+05 8.105215e+05 7.993617e+05 7.944918e+05 7.861646e+05 7.785499e+05 7.690723e+05 7.595015e+05 7.526393e+05 7.424697e+05 7.326884e+05 7.218358e+05 7.115947e+05 7.045782e+05 6.961388e+05 6.854324e+05 6.778564e+05 6.699212e+05 6.597412e+05 6.487034e+05 6.385176e+05 6.265048e+05 6.173831e+05 6.076368e+05 5.953348e+05 5.823676e+05 5.714147e+05 5.602529e+05 5.486744e+05 5.372495e+05 5.265823e+05 5.141838e+05 4.999081e+05 4.892892e+05 4.748715e+05 4.648150e+05 4.533515e+05 4.417941e+05 4.307160e+05 4.186402e+05 4.068859e+05 3.971455e+05 3.874458e+05 3.762862e+05 3.640410e+05 3.540978e+05 3.428791e+05 3.319220e+05 3.195046e+05 3.108156e+05 3.001618e+05 2.896806e+05 2.783982e+05 2.697172e+05 2.588061e+05 2.486434e+05 2.389365e+05 2.290473e+05 2.178098e+05 2.084668e+05 1.984054e+05 1.895708e+05 1.800833e+05 1.703936e+05 1.610022e+05 1.523632e+05 1.423667e+05 1.339660e+05 1.257414e+05 1.174080e+05 1.091542e+05 1.015238e+05 9.373650e+04 8.606623e+04 7.895451e+04 7.250375e+04 6.535020e+04 5.737440e+04 5.108765e+04 4.504801e+04 3.971671e+04 3.353453e+04 2.792727e+04 2.267785e+04 1.834425e+04 1.379761e+04 9.101762e+03 5.489421e+03 1.428365e+03 -2.154895e+02 -5.351925e+03 -1.057271e+04 -1.368740e+04 -1.562368e+04 -1.750660e+04 -2.058497e+04 -2.300232e+04 -2.624736e+04 -2.641093e+04 -2.690829e+04 -2.340795e+04 -2.608570e+04 -2.774840e+04 -2.679574e+04 -2.615628e+04 -2.109109e+04 -1.614224e+04 -2.262770e+04 -2.443287e+04 -2.208914e+04 -2.480440e+04 -1.873025e+04 -2.502294e+04 -2.434357e+04 -1.777970e+04 -2.110946e+04 -1.507380e+04 -1.086107e+04 -1.614929e+04 -1.489287e+04 -1.199282e+04 -6.513977e+03 -9.004057e+02 -1.604938e+04 -6.114500e+03 -1.200020e+04 -5.911214e+03 -1.546535e+04 -1.439932e+04 -5.964530e+03 9.743576e+00 -1.436048e+04 -2.377955e+04 -3.040543e+03 -8.164564e+03 -7.263001e+03 -9.962037e+03 -2.339955e+04 -1.198672e+04 -1.567509e+04 -9.598781e+03 -3.793327e+02 -2.005895e+02 -1.748160e+04 -2.388831e+04 -3.271928e+04 -2.468089e+04 -4.353374e+04 -2.988451e+04 -8.538614e+03 -7.005621e+03 2.093843e+02 -7.116544e+03 -4.799593e+03 -2.875200e+04 -2.153039e+04 -2.394315e+03 2.094090e+02 -4.896499e+04 1.103458e+05 1.103458e+05 1.103458e+05 1.279696e+05 1.279696e+05 1.279696e+05 1.319427e+05 1.283968e+05 1.514512e+05 1.393849e+05 1.745957e+05 1.745957e+05 1.745957e+05 1.745064e+05 5.101213e+04 5.101213e+04 5.101213e+04 5.074712e+04 5.691776e+04 4.492992e+05 4.492992e+05 4.492992e+05 4.455143e+05 4.511511e+05 4.511511e+05 4.511511e+05 4.365572e+05 8.429807e+04 8.429807e+04 8.429807e+04 9.075547e+04 9.599673e+04 9.635850e+04 -1.240017e+05 -1.240017e+05 -1.240017e+05 -1.371379e+05 -1.371379e+05 4.890739e+05 4.890739e+05 4.890739e+05 4.760807e+05 -1.793347e+05 -1.793347e+05 -1.793347e+05 -2.104099e+05 -2.104099e+05 7.971317e+05 7.971317e+05 7.971317e+05 2.630663e+05 2.630663e+05 2.630663e+05 2.673594e+05 1.745062e+05 1.745062e+05 1.745062e+05 5.182345e+05 5.182345e+05 5.182345e+05 5.377922e+05 -3.503611e+04 -3.503611e+04 -6.583676e+04 -6.583676e+04 3.084822e+05 3.084822e+05 3.143596e+05 5.196939e+05 5.196939e+05 5.196939e+05 5.543104e+05 5.543104e+05 -3.916237e+05 -3.916237e+05 -3.916237e+05 -3.449533e+05 -3.449533e+05 7.619487e+04 7.619487e+04 7.619487e+04 6.724723e+04 6.724723e+04 4.702183e+05 4.702183e+05 2.983111e+05 2.983111e+05 2.983111e+05 2.965508e+05 1.822173e+05 1.822173e+05 1.822173e+05 1.775993e+05 1.768578e+05 3.394501e+05 3.394501e+05 3.394501e+05 2.812001e+05 2.812001e+05 2.829416e+05 7.045782e+05 6.902054e+05 6.902054e+05 2.093843e+02 -1.484677e+05 -1.484677e+05 1.739284e+05 -2.774840e+04 -3.337416e+04 1.644935e+05 1.256637e+05 1.256637e+05 1.256637e+05 1.320928e+05 7.212484e+04 1.261924e+05 1.261924e+05 1.261924e+05 1.373314e+05 1.373314e+05 3.647385e+04 3.647385e+04 3.647385e+04 4.740401e+04 -3.704087e+04 -3.704087e+04 -3.704087e+04 -3.506889e+04 4.281980e+05 4.222497e+05 4.078400e+05 4.598716e+05 4.598716e+05 1.460054e+05 1.460054e+05 1.460054e+05 1.520615e+05 3.175458e+05 3.175458e+05 3.175458e+05 3.247433e+05 3.247433e+05 3.145797e+05 -7.314634e+04 -7.314634e+04 -7.314634e+04 -7.667572e+04 -4.801471e+04 -4.801471e+04 -4.801471e+04 -6.035997e+04 -3.147987e+04 2.561836e+05 2.561836e+05 2.561836e+05 2.562241e+05 -2.143933e+05 -2.536461e+05 3.739827e+04 3.739827e+04 3.739827e+04 4.453209e+04 -1.169870e+05 -1.169870e+05 -1.169870e+05 -1.124342e+05 3.934557e+05 3.934557e+05 3.934557e+05 4.098495e+05 4.098495e+05 -1.715977e+05 -1.715977e+05 -1.715977e+05 -1.548026e+05 4.422569e+05 4.422569e+05 4.422569e+05 4.283218e+05 5.700354e+05 5.700354e+05 5.700354e+05 5.788961e+05 -4.875546e+04 -4.875546e+04 -3.970317e+04 1.872307e+05 1.872307e+05 2.060684e+05 2.060684e+05 2.060684e+05 1.402453e+05 1.402453e+05 1.402453e+05 1.373875e+05 -1.648890e+05 -1.648890e+05 -1.648890e+05 -1.892418e+05 -1.892418e+05 7.626022e+05 7.626022e+05 7.626022e+05 7.428672e+05 7.428672e+05 1.920634e+05 4.563239e+05 4.563239e+05 4.626956e+05 -1.289905e+05 -1.289905e+05 -1.289905e+05 -1.577978e+05 -5.929503e+04 -5.929503e+04 -1.360561e+05 -1.360561e+05 6.551855e+05 6.551855e+05 6.582063e+05 5.564738e+05 5.564738e+05 -5.716656e+04 -5.716656e+04 -1.490542e+05 -1.490542e+05 5.058785e+05 5.058785e+05 5.058785e+05 4.998077e+05 1.722791e+05 1.656993e+05 2.806925e+05 2.806925e+05 2.806925e+05 2.803089e+05 3.407693e+05 3.407693e+05 3.407693e+05 3.318718e+05 3.318718e+05 -4.803389e+05 -4.803389e+05 -4.803389e+05 -5.131118e+05 -5.131118e+05 3.082959e+05 3.158572e+05 7.867847e+05 7.867847e+05 7.867847e+05 7.791864e+05 -2.038730e+05 -2.038730e+05 -2.038730e+05 -2.601173e+05 -2.601173e+05 -2.005703e+05 -2.011090e+05 1.881169e+05 1.881169e+05 1.881169e+05 1.795531e+05 1.795531e+05 1.018404e+05 1.045468e+05 1.045468e+05 -9.987237e+04 -9.987237e+04 -9.987237e+04 -9.932552e+04 -9.932552e+04 -6.828050e+04 -6.828050e+04 -6.828050e+04 -7.525457e+04 -7.525457e+04 -1.713949e+05 -1.713949e+05 -1.678742e+05 -1.678742e+05 1.774899e+05 1.774899e+05 1.702409e+05 -1.542836e+05 -1.542836e+05 -1.569350e+05 -1.569350e+05 -7.834395e+04 -7.834395e+04 -7.834395e+04 -6.647749e+04 4.823220e+04 4.823220e+04 4.823220e+04 3.446172e+04 3.446172e+04 3.845576e+05 4.149007e+05 3.398054e+05 1.310371e+05 1.310371e+05 1.310371e+05 1.408882e+05 1.408882e+05 1.641824e+05 1.641824e+05 1.691953e+05 1.122096e+05 1.122096e+05 1.110647e+05 1.019515e+05 1.806457e+05 1.806457e+05 1.806457e+05 1.718292e+05 1.718292e+05 1.718292e+05 2.115750e+05 2.115750e+05 2.115750e+05 4.644301e+04 5.491762e+04 1.453118e+05 2.148581e+05 2.148581e+05 2.148581e+05 2.052763e+05 2.483060e+05 2.483060e+05 2.483060e+05 2.549245e+05 2.549245e+05 2.549245e+05 2.481195e+05 -6.548501e+04 -6.548501e+04 -6.548501e+04 5.682050e+04 5.682050e+04 5.682050e+04 2.018604e+05 2.018604e+05 2.018604e+05 3.901034e+05 3.901034e+05 3.879198e+05 -9.611359e+04 -4.385959e+04 -4.385959e+04 4.834077e+05 4.834077e+05 4.834077e+05 5.156517e+05 5.156517e+05 1.445173e+05 1.445173e+05 -2.660985e+05 -2.424780e+05 -2.536461e+05 5.612406e+05 5.612406e+05 5.612406e+05 5.456101e+05 -1.416233e+04 -1.416233e+04 -1.416233e+04 1.676391e+05 1.662396e+05 1.607701e+05 5.157780e+04 5.157780e+04 5.157780e+04 -1.083635e+05 -1.083635e+05 -1.083635e+05 -1.106005e+05 -1.156882e+05 1.896875e+05 1.896875e+05 1.896875e+05 6.948976e+05 6.948976e+05 6.948976e+05 6.899608e+05 3.364774e+05 3.364774e+05 3.364774e+05 3.292232e+05 7.248327e+05 7.248327e+05 7.248327e+05 2.885807e+05 9.058449e+04 9.058449e+04 1.083206e+05 1.083206e+05 1.083206e+05 1.065051e+05 1.088650e+05 -5.927390e+05 -5.927390e+05 -6.216421e+05 -2.405719e+05 -1.750304e+05 4.892216e+05 4.892216e+05 -5.821505e+04 -5.821505e+04 -5.821505e+04 -6.297794e+04 -1.252238e+05 -1.252238e+05 -1.252238e+05 -1.757771e+05 3.971455e+05 3.809090e+05 3.809090e+05 2.569401e+04 2.569401e+04 2.569401e+04 2.525718e+04 -4.881617e+04 5.537664e+04 5.537664e+04 5.804982e+04 5.400890e+05 5.400890e+05 5.400890e+05 7.717817e+05 7.717817e+05 7.228264e+05 7.228264e+05 7.228264e+05 7.570809e+05 8.058765e+05 8.058765e+05 8.058765e+05 8.000846e+05 8.000846e+05 8.276308e+05 6.716932e+05 6.716932e+05 9.913597e+04 -3.522206e+04 -3.522206e+04 -3.708884e+04 2.888375e+04 8.493420e+05 8.009650e+05 8.493420e+05 8.493420e+05 4.170448e+05 4.170448e+05 4.170448e+05 3.916629e+05 3.916629e+05 5.082483e+05 5.082483e+05 5.354598e+05 5.354598e+05 4.412553e+05 4.412553e+05 4.412553e+05 4.615905e+05 4.615905e+05 1.433638e+05 1.433638e+05 1.433638e+05 1.491748e+05 1.491748e+05 5.708385e+05 5.708385e+05 5.708385e+05 5.332632e+05 5.332632e+05 2.777950e+05 2.777950e+05 2.777950e+05 1.614009e+05 -2.195063e+05 -2.195063e+05 -2.195063e+05 -1.961991e+05 -1.961991e+05 -1.164505e+05 -1.164505e+05 -1.164505e+05 -9.917063e+04 -9.917063e+04 -4.171165e+04 -4.171165e+04 -4.171165e+04 3.977404e+04 3.977404e+04 4.459364e+05 4.459364e+05 4.459364e+05 1.736998e+05 1.736998e+05 1.736998e+05 1.824455e+05 1.824455e+05 3.231109e+04 5.141809e+04 -1.540201e+04 -1.540201e+04 -1.540201e+04 -2.492830e+04 1.607329e+05 1.607329e+05 1.578401e+05 1.030920e+05 1.030920e+05 1.032788e+05 1.032788e+05 1.117730e+05 1.181264e+05 2.163181e+05 1.922543e+05 2.163181e+05 2.163181e+05 1.514512e+05 1.514512e+05 1.238352e+05 2.500357e+05 2.583733e+05 5.037034e+05 5.037034e+05 5.037034e+05 4.956430e+05 5.053941e+05 2.495577e+04 2.495577e+04 2.495577e+04 1.846924e+04 -1.153829e+05 -8.755356e+04 -5.624770e+05 -5.624770e+05 -5.624770e+05 -4.858980e+05 4.454236e+05 4.604285e+05 4.648378e+05 1.097739e+05 1.097739e+05 1.075583e+05 -1.222319e+05 -1.346070e+05 -1.346070e+05 -1.387720e+05 -2.209562e+05 -3.614723e+04 -5.945504e+04 -8.218977e+04 1.038630e+04 1.038630e+04 1.038630e+04 9.859623e+03 -8.928373e+04 -8.928373e+04 -8.928373e+04 -4.021576e+04 1.134372e+05 -6.114500e+03 -9.541760e+04 -9.541760e+04 3.218394e+05 3.218394e+05 3.218394e+05 4.963724e+03 7.321346e+05 7.321346e+05 3.793308e+04 3.793308e+04 3.793308e+04 3.966255e+05 -6.667229e+04 -6.667229e+04 2.041021e+04 -5.751084e+02 -5.751084e+02 -5.751084e+02 -3.695408e+03 -3.169685e+04 -5.515601e+04 -5.515601e+04 -8.503158e+04 -8.164564e+03 1.290508e+05 1.290508e+05 -8.677529e+04 -8.677529e+04 -8.677529e+04 -3.490552e+04 6.622625e+05 6.566320e+05 6.566320e+05 3.561747e+05 -1.050926e+05 -1.050926e+05 -1.165025e+05 7.066476e+05 7.066476e+05 6.548793e+05 4.715671e+05 -2.624736e+04 -3.618003e+04 -3.618003e+04 8.775847e+05 8.775847e+05 -3.875900e+04 7.666939e+05 7.666939e+05 -2.107403e+04 -2.107403e+04 -2.107403e+04 -2.093972e+04 -7.366742e+04 -7.366742e+04 -3.501383e+04 -3.501383e+04 -1.592679e+05 -1.843863e+05 2.667050e+05 2.686410e+05 -9.004057e+02 -7.230815e+04 -7.230815e+04 1.523632e+05 1.549806e+05 1.549806e+05 -7.052189e+04 -7.052189e+04 -1.746830e+05 -1.746830e+05 5.868846e+05 1.631337e+05 8.856392e+05 8.856392e+05 8.832320e+05 9.042273e+05 9.042273e+05 6.597412e+05 6.277154e+05 4.031669e+05 4.031669e+05 4.031669e+05 7.895580e+05 7.895580e+05 7.895580e+05 7.892915e+05 -2.865895e+04 -2.865895e+04 4.343025e+05 -1.850922e+05 -1.850922e+05 5.070348e+02 -6.653536e+04 4.654688e+04 4.654688e+04 4.654688e+04 -2.623505e+04 -2.623505e+04 6.385176e+05 6.064689e+05 6.064689e+05 2.389365e+05 2.397102e+05 2.084668e+05 2.102882e+05 -3.117682e+05 8.470020e+05 8.470020e+05 -6.862463e+04 -6.862463e+04 -6.862463e+04 -8.019258e+04 7.849135e+05 -2.938438e+04 -1.065486e+04 -1.065486e+04 -1.291365e+04 -4.070540e+04 -4.070540e+04 -1.475534e+05 -1.475534e+05 -5.007483e+04 3.762862e+05 3.638725e+05 3.638725e+05 6.175893e+04 8.623945e+05 8.623945e+05 8.233538e+05 8.233538e+05 8.148842e+04 8.148842e+04 8.148842e+04 -7.740140e+04 -7.740140e+04 -7.740140e+04 9.357212e+04 9.357212e+04 6.525074e+05 8.558725e+05 8.400969e+05 7.902413e+05 6.356778e+05 8.276357e+05 -1.947079e+05 2.484067e+05 2.534838e+05 -8.584107e+04 -8.584107e+04 4.988872e+05 4.298222e+05 -5.056757e+04 -7.014986e+04 7.276347e+04 7.276347e+04 9.376891e+05 8.932165e+05 8.719286e+05 8.719286e+05 8.719286e+05 9.048265e+05 6.946013e+05 6.567933e+05 7.380659e+05 7.329660e+05 2.286578e+05 2.286578e+05 2.236219e+05 6.198514e+05 -1.618409e+05 -1.131022e+05 4.855404e+05 4.171079e+05 4.171079e+05 4.171079e+05 5.034955e+04 -1.919247e+04 -1.919247e+04 -1.919247e+04 8.882648e+05 7.133555e+05 8.034853e+05 7.531924e+05 -4.625844e+04 3.618227e+05 7.781139e+05 8.267070e+05 -2.718246e+05 -4.149531e+05 -4.149531e+05 3.003137e+05 3.992238e+05 -1.660847e+05 -2.138124e+05 6.366058e+05 5.930319e+05 5.930319e+05 -2.035503e+05 -2.035503e+05 -2.285123e+05 -2.285123e+05 -2.995197e+04 4.950580e+05 1.479647e+05 -2.828632e+05 7.477755e+05 7.236745e+05 4.484988e+04 1.387489e+05 1.362136e+05 1.362136e+05 6.902173e+05 6.902173e+05 6.581525e+05 6.581525e+05 3.496247e+04 4.183312e+04 -7.135165e+04 -7.135165e+04 -5.930252e+04 4.768691e+03 4.768691e+03 -1.176721e+03 -1.176721e+03 -5.023623e+04 -5.023623e+04 -5.418113e+05 7.359126e+05 7.359126e+05 5.959803e+05 5.959803e+05 5.959803e+05 5.360270e+05 -1.799435e+05 -1.799435e+05 -1.304873e+05 -1.304873e+05 -3.533238e+05 -3.321817e+05 5.997162e+05 7.638277e+05 -9.255173e+04 -3.830628e+05 -3.830628e+05 7.706777e+04 7.706777e+04 8.553128e+04 -3.569244e+05 -3.569244e+05 -7.630172e+04 -7.630172e+04 7.027053e+05 7.027053e+05 2.441431e+05 8.562445e+05 3.727159e+05 3.727159e+05 3.675803e+05 1.491699e+05 1.544567e+05 -1.672028e+05 -2.120624e+05 -3.863306e+04 8.172256e+05 -5.323899e+05 -8.773162e+03 -8.773162e+03 -8.773162e+03 1.201244e+05 1.201244e+05 1.201244e+05 1.979991e+05 2.338767e+04 2.338767e+04 2.338767e+04 1.551143e+04 8.571728e+05 8.226672e+05 4.824551e+05 4.542220e+05 4.542220e+05 9.629344e+04 9.629344e+04 9.629344e+04 5.066768e+05 -1.995713e+05 7.797084e+05 8.457063e+05 8.457063e+05 8.195186e+05 1.217288e+05 -9.543832e+04 -9.543832e+04 -1.041685e+05 -4.444228e+04 -4.444228e+04 7.673511e+05 -1.621575e+05 -3.710850e+04 -3.318557e+04 -9.683986e+04 2.196373e+05 2.261655e+05 7.660657e+05 5.402583e+04 5.402583e+04 5.402583e+04 -8.634184e+04 -8.634184e+04 5.734429e+05 5.431172e+05 5.431172e+05 6.931518e+05 6.746972e+05 -1.768979e+05 -1.765901e+05 6.901310e+05 6.901310e+05 6.901310e+05 6.793296e+05 -1.692145e+05 -1.692145e+05 -1.521614e+05 -3.644560e+05 -3.644560e+05 2.505534e+05 2.505534e+05 2.505534e+05 2.558354e+05 -4.200803e+04 6.941933e+05 6.941933e+05 6.941933e+05 7.029358e+05 7.558361e+05 -1.326553e+05 -1.326553e+05 -1.352432e+05 -1.352432e+05 -1.956384e+05 5.725807e+05 5.725807e+05 8.450313e+04 7.841106e+04 5.007171e+05 5.007171e+05 -1.366228e+05 -1.422483e+05 6.710366e+05 8.009650e+05 7.825927e+05 -5.420682e+04 -5.437211e+04 7.497048e+05 2.484077e+04 2.484077e+04 2.367911e+04 2.367911e+04 -5.860419e+04 5.628145e+04 6.353899e+04 4.227354e+05 -2.583969e+04 -1.533542e+05 -1.351764e+05 5.598772e+05 5.598772e+05 7.891275e+05 7.891275e+05 7.891275e+05 7.566329e+05 -3.113555e+05 -3.113555e+05 -3.542906e+05 2.449737e+05 2.387348e+05 3.952349e+05 -4.618350e+05 -5.502733e+05 -5.502733e+05 -5.502733e+05 -5.049523e+05 5.100512e+03 9.364954e+05 6.662729e+05 6.238991e+05 6.238991e+05 -2.635462e+05 -2.635462e+05 -2.635462e+05 -2.889178e+05 7.361076e+05 7.361076e+05 6.293155e+05 6.293155e+05 6.129716e+05 4.567106e+05 3.377012e+05 7.397080e+05 -2.219212e+04 -2.826650e+04 7.464594e+05 7.381340e+05 1.559516e+05 3.610503e+05 3.610503e+05 3.610503e+05 3.719178e+05 -2.470249e+05 3.173028e+04 3.213547e+04 -3.620516e+05 -3.345701e+05 1.090853e+05 1.134639e+05 -9.541536e+04 -9.541536e+04 4.063776e+05 -6.342187e+04 -6.342187e+04 -5.585982e+04 -7.935669e+04 -7.935669e+04 9.613537e+03 -2.186239e+05 -2.186239e+05 -2.444783e+05 6.197030e+05 7.140743e+05 7.140743e+05 -9.396741e+03 -9.300013e+03 -9.300013e+03 2.764236e+05 -2.797029e+05 -3.359620e+05 -2.896028e+05 5.585026e+05 5.585026e+05 1.354050e+05 -4.358645e+04 2.695414e+05 2.617688e+05 2.368965e+05 5.566619e+05 5.566619e+05 3.748793e+05 3.748793e+05 3.748793e+05 2.270044e+05 2.255690e+05 4.754549e+05 4.701409e+05 4.701409e+05 1.391870e+05 1.317558e+05 1.317558e+05 3.037045e+05 2.076414e+05 2.154666e+05 6.636498e+05 6.510001e+05 6.510001e+05 6.510001e+05 6.732566e+05 -2.885723e+05 -1.275685e+05 2.395737e+03 7.899940e+03 -9.387628e+04 -9.387628e+04 -9.387628e+04 6.121360e+04 6.121360e+04 6.121360e+04 6.321597e+04 7.217074e+04 -2.549869e+05 -1.789689e+05 -1.718014e+05 4.041450e+04 4.041450e+04 -2.121997e+05 -1.720636e+05 -1.686491e+05 -1.686491e+05 2.366372e+04 -6.540091e+04 -6.540091e+04 -6.974216e+04 4.275116e+05 4.275116e+05 4.145632e+05 -2.324855e+04 -2.324855e+04 1.709419e+05 -1.302495e+05 -1.302495e+05 -1.385079e+05 -1.385079e+05 -2.222921e+05 -2.222921e+05 -2.222921e+05 6.322272e+05 5.985793e+05 5.985793e+05 -2.445598e+05 -2.445598e+05 -2.445598e+05 -3.153277e+05 -3.042528e+05 5.050084e+04 6.360505e+05 6.360505e+05 6.026740e+05 5.789268e+05 5.789268e+05 5.789268e+05 3.215888e+05 3.215888e+05 3.180278e+05 2.865323e+05 2.865323e+05 2.944349e+05 -2.600380e+05 -1.979255e+05 -1.979255e+05 6.951769e+05 6.574700e+05 -3.688243e+04 -3.688243e+04 -3.688243e+04 7.373942e+05 -1.559948e+05 -1.559948e+05 -1.500297e+05 -1.500297e+05 -2.333615e+05 -2.333615e+05 -2.125936e+05 -2.125936e+05 -2.301687e+05 -2.301687e+05 -2.936978e+05 2.473402e+05 2.437249e+05 -3.037751e+04 5.143000e+05 5.143000e+05 5.143000e+05 6.180244e+04 3.636412e+05 -2.168872e+05 3.232849e+05 7.011255e+05 -8.584857e+04 3.913577e+05 3.913577e+05 7.070857e+05 6.641854e+05 6.641854e+05 2.713730e+05 2.719911e+05 6.519139e+05 6.519139e+05 6.107612e+05 -1.695246e+05 -1.695246e+05 8.051225e+04 1.324233e+05 5.789546e+05 1.942338e+05 6.923179e+05 6.428411e+05 6.428411e+05 -4.412724e+04 3.888222e+04 1.571863e+04 6.323244e+05 6.568148e+05 -2.141272e+05 -2.141272e+05 -8.186176e+04 -8.186176e+04 1.464443e+05 -2.222124e+05 -2.245173e+05 -2.245173e+05 5.786139e+05 -5.461099e+04 -4.476910e+04 1.449686e+04 1.449686e+04 1.449686e+04 4.845784e+03 4.845784e+03 3.570487e+05 5.381104e+05 6.205872e+05 4.423095e+05 4.423095e+05 2.203903e+05 2.203903e+05 2.219007e+05 2.068392e+05 2.068392e+05 6.382872e+05 6.382872e+05 6.382872e+05 5.929450e+05 5.929450e+05 2.870193e+05 2.870193e+05 2.970427e+05 3.536682e+05 3.268503e+05 3.268503e+05 3.268503e+05 -1.227611e+05 3.772673e+05 3.594613e+05 3.594613e+05 -1.169018e+05 -1.097527e+05 -2.424780e+05 -2.131971e+05 5.821545e+05 2.703867e+05 2.584098e+05 6.574700e+05 4.526672e+05 4.526672e+05 4.258652e+05 4.258652e+05 4.774913e+05 4.772473e+05 5.800923e+05 -1.921229e+05 -1.347287e+05 -1.347287e+05 -1.370887e+05 -2.340984e+05 5.044992e+05 -2.394817e+05 7.127351e+04 -1.053758e+05 6.151361e+05 5.505977e+05 5.505977e+05 5.333034e+05 5.333034e+05 2.906524e+03 1.208195e+05 1.208195e+05 1.208195e+05 -3.382974e+04 4.881481e+05 1.674630e+05 -1.739064e+05 -1.769736e+05 -5.990885e+04 -2.239048e+05 -1.486689e+05 -1.647373e+05 -1.946703e+05 -1.946703e+05 -1.946703e+05 3.740377e+05 -1.437776e+04 -2.242378e+05 4.288578e+05 4.288578e+05 4.138906e+05 2.154170e+05 7.371653e+04 7.371653e+04 5.339485e+05 3.034569e+05 3.093027e+05 -2.137416e+05 2.052213e+05 2.052213e+05 2.217666e+05 -2.413249e+05 -1.930519e+05 -1.930519e+05 -2.052103e+05 1.261265e+05 1.261265e+05 1.261265e+05 2.418131e+05 2.598091e+04 1.764858e+05 8.919546e+03 7.099002e+02 7.099002e+02 -4.405725e+04 -9.767524e+04 3.630916e+05 3.630916e+05 4.638285e+05 -5.479465e+04 -5.479465e+04 -5.479465e+04 -5.972442e+04 5.692557e+05 2.662516e+05 5.416217e+05 4.994691e+05 1.026710e+05 3.369232e+05 3.427107e+05 5.365618e+05 2.526689e+05 2.494452e+05 -2.143933e+05 2.419492e+05 4.296970e+05 4.296970e+05 4.296970e+05 6.075465e+05 5.822979e+05 4.161703e+05 5.008195e+05 6.075465e+05 -1.735385e+05 -1.951083e+05 -8.510192e+04 2.998624e+05 2.759251e+05 1.914886e+05 -1.480103e+05 -1.480103e+05 -1.480103e+05 -4.863141e+04 5.042638e+05 5.042638e+05 5.339117e+05 5.339117e+05 2.229767e+05 -1.767482e+05 4.827663e+05 8.699800e+04 8.699800e+04 8.699800e+04 3.883229e+04 4.681780e+05 4.681780e+05 8.030987e+04 1.781908e+05 3.056389e+05 -1.468099e+05 4.229944e+05 4.229944e+05 4.229944e+05 -1.585654e+05 -1.585654e+05 -1.585654e+05 6.018020e+05 1.731532e+05 5.012992e+05 5.012992e+05 -1.780426e+05 -1.780426e+05 -1.780426e+05 -1.705994e+05 1.468101e+04 1.468101e+04 1.468101e+04 3.677886e+05 3.677886e+05 3.677886e+05 4.070497e+05 1.060500e+05 1.035623e+05 1.240699e+05 1.240699e+05 1.240699e+05 5.196906e+04 5.505085e+04 5.505085e+04 3.614948e+05 3.320349e+05 5.853255e+05 1.002264e+05 9.457997e+04 -1.263135e+05 -9.953068e+04 2.456693e+05 -6.374057e+04 -1.351301e+05 -1.351301e+05 -1.444594e+05 4.427220e+05 2.205163e+05 -5.362659e+04 -6.204710e+04 7.370808e+04 2.429481e+05 -1.088949e+04 -1.088949e+04 3.356111e+05 3.615604e+05 3.471216e+05 -7.343260e+04 1.706959e+05 4.493195e+05 -1.199604e+05 -1.199604e+05 -1.555797e+05 -1.555797e+05 3.765652e+05 3.765652e+05 3.765652e+05 3.533235e+05 3.533235e+05 2.378368e+05 4.007608e+05 3.912382e+05 3.912382e+05 -6.586322e+04 1.997913e+05 2.155188e+05 2.739675e+05 2.739675e+05 2.962429e+05 3.612005e+05 -1.168329e+05 -1.168329e+05 3.383063e+05 3.301734e+05 -1.263135e+05 -1.263135e+05 -6.957019e+04 -1.786754e+05 -1.786754e+05 -1.786754e+05 1.464626e+05 -7.790554e+04 -7.345084e+04 8.312281e+04 8.312281e+04 8.312281e+04 1.162837e+05 1.285830e+05 2.182556e+05 1.076133e+05 -6.392722e+04 2.719956e+05 2.719956e+05 2.719956e+05 2.597404e+05 -1.625355e+05 3.418314e+05 3.418314e+05 3.418314e+05 3.044477e+05 -1.023494e+05 3.184884e+05 3.184884e+05 1.512508e+05 -1.043566e+05 -1.043566e+05 -1.043566e+05 -1.073854e+05 -1.073854e+05 4.207625e+05 3.876483e+05 3.876483e+05 -9.086984e+04 -1.085388e+05 -1.085388e+05 2.517425e+05 -8.465952e+04 -8.465952e+04 -8.465952e+04 -6.548402e+04 -6.548402e+04 -6.548402e+04 1.206214e+05 1.206214e+05 1.304895e+05 3.616935e+04 -9.011611e+04 -9.011611e+04 1.141420e+05 1.815829e+05 1.815829e+05 1.649707e+05 1.649707e+05 3.111958e+05 3.573152e+04 1.613167e+04 1.613167e+04 -8.296462e+04 -8.296462e+04 7.917788e+04 7.917788e+04 9.978050e+04 2.296380e+05 2.296380e+05 2.138064e+05 2.138064e+05 4.497329e+04 2.355184e+05 3.522794e+05 3.426601e+05 3.426601e+05 2.186821e+05 1.563412e+05 7.075167e+04 3.210897e+05 3.210897e+05 2.336601e+05 3.398054e+05 3.398054e+05 -8.201642e+04 -8.201642e+04 2.564228e+05 2.986835e+05 2.986835e+05 2.986835e+05 2.778739e+05 2.778739e+05 3.164396e+05 1.840851e+05 1.840851e+05 2.830486e+05 2.830486e+05 2.669704e+05 6.999540e+04 1.472980e+05 -2.363067e+04 -3.339879e+04 3.083073e+05 3.083073e+05 -1.317166e+04 -1.317166e+04 1.179481e+05 1.179481e+05 -6.680573e+04 1.636220e+05 1.636220e+05 1.476819e+05 3.557406e+04 3.557406e+04 2.480981e+05 2.480981e+05 2.313181e+05 1.886800e+05 1.886800e+05 7.841035e+04 7.841035e+04 1.350974e+05 1.350974e+05 1.050938e+05 1.077159e+05 1.077159e+05 -2.401699e+04 8.332529e+03 6.542499e+04 1.807558e+05 1.820603e+05 2.879784e+05 2.821540e+05 2.469608e+05 2.469608e+05 2.847955e+05 3.623370e+04 3.623370e+04 1.642725e+04 2.063183e+05 2.809882e+05 2.996828e+05 2.996828e+05 1.027509e+05 1.027509e+05 2.525593e+05 2.773586e+05 7.072782e+04 7.072782e+04 2.360103e+05 2.360103e+05 5.332368e+02 3.025851e+04 3.025851e+04 3.025851e+04 1.441549e+04 1.441549e+04 2.318778e+05 2.166579e+05 1.900422e+05 1.900422e+05 2.103943e+05 2.103943e+05 2.300490e+05 5.987103e+04 2.662264e+05 2.404812e+05 1.548843e+05 1.306907e+05 1.799112e+05 1.521300e+05 2.060442e+05 8.731468e+04 1.407790e+05 1.699026e+05 1.550213e+05 1.612121e+05 1.991135e+05 1.922543e+05 1.083732e+05 1.083732e+05 1.541325e+05 1.469284e+05 1.783489e+05 9.690524e+04 1.032737e+05 1.614569e+05 1.614569e+05 1.598501e+05 1.598501e+05 1.212577e+05 1.212577e+05 1.499453e+05 1.375159e+05 1.375159e+05 1.375159e+05 1.377147e+05 1.377147e+05 6.333420e+04 6.333420e+04 6.333420e+04 1.910364e+04 1.910364e+04 -4.770390e+04 -3.849804e+04 8.808263e+04 -4.770390e+04 -4.770390e+04 -5.738790e+04 -2.403046e+03 2.554895e+04 3.962044e+04 4.504237e+04 4.636123e+04 6.811577e+04 6.990737e+04 8.418176e+04 8.418176e+04 1.178395e+05 -6.425737e+04 8.808263e+04 2.776897e+05 2.176501e+05 1.495654e+05 2.774462e+05 2.774462e+05 2.480298e+05 2.457322e+05 2.480298e+05 1.205667e+05 2.321596e+05 1.333364e+05 9.454621e+04 9.702341e+04 9.702341e+04 1.402559e+05 9.376891e+05 9.376891e+05 9.364954e+05 9.352237e+05 9.318642e+05 9.289355e+05 9.214405e+05 9.167155e+05 9.114426e+05 9.047887e+05 8.995743e+05 8.932371e+05 8.861941e+05 8.798393e+05 8.744730e+05 8.647644e+05 8.593114e+05 8.519524e+05 8.488790e+05 8.415983e+05 8.358708e+05 8.276638e+05 8.191787e+05 8.105215e+05 7.993617e+05 7.944918e+05 7.861646e+05 7.785499e+05 7.690723e+05 7.595015e+05 7.526393e+05 7.424697e+05 7.326884e+05 7.218358e+05 7.115947e+05 7.045782e+05 6.961388e+05 6.854324e+05 6.778564e+05 6.699212e+05 6.597412e+05 6.487034e+05 6.385176e+05 6.265048e+05 6.173831e+05 6.076368e+05 5.953348e+05 5.823676e+05 5.714147e+05 5.602529e+05 5.486744e+05 5.372495e+05 5.265823e+05 5.141838e+05 4.999081e+05 4.892892e+05 4.748715e+05 4.648150e+05 4.533515e+05 4.417941e+05 4.307160e+05 4.186402e+05 4.068859e+05 3.971455e+05 3.874458e+05 3.762862e+05 3.640410e+05 3.540978e+05 3.428791e+05 3.319220e+05 3.195046e+05 3.108156e+05 3.001618e+05 2.896806e+05 2.783982e+05 2.697172e+05 2.588061e+05 2.486434e+05 2.389365e+05 2.290473e+05 2.178098e+05 2.084668e+05 1.984054e+05 1.895708e+05 1.800833e+05 1.703936e+05 1.610022e+05 1.523632e+05 1.423667e+05 1.339660e+05 1.257414e+05 1.174080e+05 1.091542e+05 1.015238e+05 9.373650e+04 8.606623e+04 7.895451e+04 7.250375e+04 6.535020e+04 5.737440e+04 5.108765e+04 4.504801e+04 3.971671e+04 3.353453e+04 2.792727e+04 2.267785e+04 1.834425e+04 1.379761e+04 9.101762e+03 5.489421e+03 1.428365e+03 -2.154895e+02 -5.351925e+03 -1.057271e+04 -1.368740e+04 -1.562368e+04 -1.750660e+04 -2.058497e+04 -2.300232e+04 -2.624736e+04 -2.641093e+04 -2.690829e+04 -2.340795e+04 -2.608570e+04 -2.774840e+04 -2.679574e+04 -2.615628e+04 -2.109109e+04 -1.614224e+04 -2.262770e+04 -2.443287e+04 -2.208914e+04 -2.480440e+04 -1.873025e+04 -2.502294e+04 -2.434357e+04 -1.777970e+04 -2.110946e+04 -1.507380e+04 -1.086107e+04 -1.614929e+04 -1.489287e+04 -1.199282e+04 -6.513977e+03 -9.004057e+02 -1.604938e+04 -6.114500e+03 -1.200020e+04 -5.911214e+03 -1.546535e+04 -1.439932e+04 -5.964530e+03 9.743576e+00 -1.436048e+04 -2.377955e+04 -3.040543e+03 -8.164564e+03 -7.263001e+03 -9.962037e+03 -2.339955e+04 -1.198672e+04 -1.567509e+04 -9.598781e+03 -3.793327e+02 -2.005895e+02 -1.748160e+04 -2.388831e+04 -3.271928e+04 -2.468089e+04 -4.353374e+04 -2.988451e+04 -8.538614e+03 -7.005621e+03 2.093843e+02 -7.116544e+03 -4.799593e+03 -2.875200e+04 -2.153039e+04 -2.394315e+03 2.094090e+02 -4.896499e+04 1.103458e+05 1.103458e+05 1.103458e+05 1.279696e+05 1.279696e+05 1.279696e+05 1.319427e+05 1.283968e+05 1.514512e+05 1.393849e+05 1.745957e+05 1.745957e+05 1.745957e+05 1.745064e+05 5.101213e+04 5.101213e+04 5.101213e+04 5.074712e+04 5.691776e+04 4.492992e+05 4.492992e+05 4.492992e+05 4.455143e+05 4.511511e+05 4.511511e+05 4.511511e+05 4.365572e+05 8.429807e+04 8.429807e+04 8.429807e+04 9.075547e+04 9.599673e+04 9.635850e+04 -1.240017e+05 -1.240017e+05 -1.240017e+05 -1.371379e+05 -1.371379e+05 4.890739e+05 4.890739e+05 4.890739e+05 4.760807e+05 -1.793347e+05 -1.793347e+05 -1.793347e+05 -2.104099e+05 -2.104099e+05 7.971317e+05 7.971317e+05 7.971317e+05 2.630663e+05 2.630663e+05 2.630663e+05 2.673594e+05 1.745062e+05 1.745062e+05 1.745062e+05 5.182345e+05 5.182345e+05 5.182345e+05 5.377922e+05 -3.503611e+04 -3.503611e+04 -6.583676e+04 -6.583676e+04 3.084822e+05 3.084822e+05 3.143596e+05 5.196939e+05 5.196939e+05 5.196939e+05 5.543104e+05 5.543104e+05 -3.916237e+05 -3.916237e+05 -3.916237e+05 -3.449533e+05 -3.449533e+05 7.619487e+04 7.619487e+04 7.619487e+04 6.724723e+04 6.724723e+04 4.702183e+05 4.702183e+05 2.983111e+05 2.983111e+05 2.983111e+05 2.965508e+05 1.822173e+05 1.822173e+05 1.822173e+05 1.775993e+05 1.768578e+05 3.394501e+05 3.394501e+05 3.394501e+05 2.812001e+05 2.812001e+05 2.829416e+05 7.045782e+05 6.902054e+05 6.902054e+05 2.093843e+02 -1.484677e+05 -1.484677e+05 1.739284e+05 -2.774840e+04 -3.337416e+04 1.644935e+05 1.256637e+05 1.256637e+05 1.256637e+05 1.320928e+05 7.212484e+04 1.261924e+05 1.261924e+05 1.261924e+05 1.373314e+05 1.373314e+05 3.647385e+04 3.647385e+04 3.647385e+04 4.740401e+04 -3.704087e+04 -3.704087e+04 -3.704087e+04 -3.506889e+04 4.281980e+05 4.222497e+05 4.078400e+05 4.598716e+05 4.598716e+05 1.460054e+05 1.460054e+05 1.460054e+05 1.520615e+05 3.175458e+05 3.175458e+05 3.175458e+05 3.247433e+05 3.247433e+05 3.145797e+05 -7.314634e+04 -7.314634e+04 -7.314634e+04 -7.667572e+04 -4.801471e+04 -4.801471e+04 -4.801471e+04 -6.035997e+04 -3.147987e+04 2.561836e+05 2.561836e+05 2.561836e+05 2.562241e+05 -2.143933e+05 -2.536461e+05 3.739827e+04 3.739827e+04 3.739827e+04 4.453209e+04 -1.169870e+05 -1.169870e+05 -1.169870e+05 -1.124342e+05 3.934557e+05 3.934557e+05 3.934557e+05 4.098495e+05 4.098495e+05 -1.715977e+05 -1.715977e+05 -1.715977e+05 -1.548026e+05 4.422569e+05 4.422569e+05 4.422569e+05 4.283218e+05 5.700354e+05 5.700354e+05 5.700354e+05 5.788961e+05 -4.875546e+04 -4.875546e+04 -3.970317e+04 1.872307e+05 1.872307e+05 2.060684e+05 2.060684e+05 2.060684e+05 1.402453e+05 1.402453e+05 1.402453e+05 1.373875e+05 -1.648890e+05 -1.648890e+05 -1.648890e+05 -1.892418e+05 -1.892418e+05 7.626022e+05 7.626022e+05 7.626022e+05 7.428672e+05 7.428672e+05 1.920634e+05 4.563239e+05 4.563239e+05 4.626956e+05 -1.289905e+05 -1.289905e+05 -1.289905e+05 -1.577978e+05 -5.929503e+04 -5.929503e+04 -1.360561e+05 -1.360561e+05 6.551855e+05 6.551855e+05 6.582063e+05 5.564738e+05 5.564738e+05 -5.716656e+04 -5.7