<?xml version="1.0"?>
 <VTKFile type="UnstructuredGrid" version="1.0" byte_order="LittleEndian" header_type="UInt64">
  <UnstructuredGrid>
    <FieldData>
     <DataArray type="Float64" Name="TimeValue" NumberOfTuples="1" format="ascii">
0.00032
     </DataArray>
    </FieldData>
   <Piece NumberOfPoints="3632" NumberOfCells="3379">
    <PointData>
     <DataArray type="Float64" Name="pointP" format="ascii">
9.285567e+05 9.285567e+05 9.268838e+05 9.256692e+05 9.222784e+05 9.194283e+05 9.118763e+05 9.071546e+05 9.019524e+05 8.954351e+05 8.901751e+05 8.839012e+05 8.769579e+05 8.707247e+05 8.654532e+05 8.557842e+05 8.504860e+05 8.432148e+05 8.401679e+05 8.330571e+05 8.276012e+05 8.194631e+05 8.110806e+05 8.025281e+05 7.914421e+05 7.866801e+05 7.784471e+05 7.710935e+05 7.616216e+05 7.521844e+05 7.455279e+05 7.354823e+05 7.257871e+05 7.149476e+05 7.048295e+05 6.981224e+05 6.897848e+05 6.792090e+05 6.717381e+05 6.640003e+05 6.540161e+05 6.430363e+05 6.330789e+05 6.211370e+05 6.122124e+05 6.026106e+05 5.904130e+05 5.775836e+05 5.667092e+05 5.557412e+05 5.443219e+05 5.330623e+05 5.225803e+05 5.102737e+05 4.960836e+05 4.856336e+05 4.713609e+05 4.614028e+05 4.500914e+05 4.387187e+05 4.278011e+05 4.158767e+05 4.041940e+05 3.946427e+05 3.850700e+05 3.740257e+05 3.618394e+05 3.520474e+05 3.410050e+05 3.301425e+05 3.178070e+05 3.092084e+05 2.986900e+05 2.883191e+05 2.771169e+05 2.684985e+05 2.577179e+05 2.476408e+05 2.380666e+05 2.282492e+05 2.170852e+05 2.078376e+05 1.978658e+05 1.891092e+05 1.797087e+05 1.700972e+05 1.607831e+05 1.522068e+05 1.422776e+05 1.339315e+05 1.257647e+05 1.174861e+05 1.092762e+05 1.016964e+05 9.395409e+04 8.631578e+04 7.922381e+04 7.278394e+04 6.565619e+04 5.768278e+04 5.140406e+04 4.536386e+04 4.003161e+04 3.381483e+04 2.819869e+04 2.293087e+04 1.857034e+04 1.397321e+04 9.223992e+03 5.540051e+03 1.404825e+03 -3.498884e+02 -5.478184e+03 -1.076932e+04 -1.398221e+04 -1.605921e+04 -1.806160e+04 -2.120835e+04 -2.374167e+04 -2.707233e+04 -2.739050e+04 -2.800494e+04 -2.479139e+04 -2.753795e+04 -2.924040e+04 -2.847158e+04 -2.794207e+04 -2.309029e+04 -1.830629e+04 -2.478672e+04 -2.670535e+04 -2.449948e+04 -2.721915e+04 -2.132932e+04 -2.763123e+04 -2.716166e+04 -2.053430e+04 -2.384001e+04 -1.781361e+04 -1.350813e+04 -1.879321e+04 -1.765092e+04 -1.459180e+04 -8.796787e+03 -2.831084e+03 -1.850242e+04 -8.920208e+03 -1.508850e+04 -9.009500e+03 -1.844353e+04 -1.687009e+04 -6.767823e+03 -3.188873e+01 -1.508678e+04 -2.208397e+04 1.120596e+03 -5.816326e+03 -6.904014e+03 -8.863848e+03 -1.099130e+04 2.654736e+03 -1.175239e+04 -8.841126e+03 4.051503e+02 6.269462e+02 -1.714577e+04 -1.779104e+04 -1.393245e+04 2.333599e+03 -2.691206e+04 -2.983284e+04 -1.072356e+04 -8.563087e+03 -1.078376e+02 -9.064979e+03 -8.535702e+03 -3.387433e+04 -2.548992e+04 -3.864022e+03 -2.904921e+02 -5.019250e+04 1.103223e+05 1.103223e+05 1.103223e+05 1.279592e+05 1.279592e+05 1.279592e+05 1.319362e+05 1.283898e+05 1.514683e+05 1.393998e+05 1.746196e+05 1.746196e+05 1.746196e+05 1.745321e+05 5.098387e+04 5.098387e+04 5.098387e+04 5.071365e+04 5.688031e+04 4.465858e+05 4.465858e+05 4.465858e+05 4.429183e+05 4.481845e+05 4.481845e+05 4.481845e+05 4.339347e+05 8.430595e+04 8.430595e+04 8.430595e+04 9.076869e+04 9.600609e+04 9.635718e+04 -1.239747e+05 -1.239747e+05 -1.239747e+05 -1.366121e+05 -1.366121e+05 4.848533e+05 4.848533e+05 4.848533e+05 4.720411e+05 -1.795674e+05 -1.795674e+05 -1.795674e+05 -2.075485e+05 -2.075485e+05 7.879778e+05 7.879778e+05 7.879778e+05 2.619198e+05 2.619198e+05 2.619198e+05 2.661768e+05 1.742277e+05 1.742277e+05 1.742277e+05 5.138289e+05 5.138289e+05 5.138289e+05 5.334525e+05 -3.685858e+04 -3.685858e+04 -6.668755e+04 -6.668755e+04 3.068976e+05 3.068976e+05 3.127423e+05 5.151642e+05 5.151642e+05 5.151642e+05 5.495165e+05 5.495165e+05 -3.618284e+05 -3.618284e+05 -3.618284e+05 -3.242748e+05 -3.242748e+05 7.614656e+04 7.614656e+04 7.614656e+04 6.720110e+04 6.720110e+04 4.669938e+05 4.669938e+05 2.968180e+05 2.968180e+05 2.968180e+05 2.951357e+05 1.818267e+05 1.818267e+05 1.818267e+05 1.772477e+05 1.765187e+05 3.374870e+05 3.374870e+05 3.374870e+05 2.799106e+05 2.799106e+05 2.815985e+05 6.981224e+05 6.835978e+05 6.835978e+05 -1.078376e+02 -1.490013e+05 -1.490013e+05 1.736130e+05 -2.924040e+04 -3.459652e+04 1.645176e+05 1.256372e+05 1.256372e+05 1.256372e+05 1.320698e+05 7.208160e+04 1.261452e+05 1.261452e+05 1.261452e+05 1.372941e+05 1.372941e+05 3.436581e+04 3.436581e+04 3.436581e+04 4.663682e+04 -4.409955e+04 -4.409955e+04 -4.409955e+04 -3.797531e+04 4.259864e+05 4.202377e+05 4.061310e+05 4.571068e+05 4.571068e+05 1.459652e+05 1.459652e+05 1.459652e+05 1.520120e+05 3.163833e+05 3.163833e+05 3.163833e+05 3.235612e+05 3.235612e+05 3.135482e+05 -7.358172e+04 -7.358172e+04 -7.358172e+04 -7.709822e+04 -4.804779e+04 -4.804779e+04 -4.804779e+04 -6.062539e+04 -3.143210e+04 2.556256e+05 2.556256e+05 2.556256e+05 2.556951e+05 -2.136833e+05 -2.501110e+05 3.738893e+04 3.738893e+04 3.738893e+04 4.451938e+04 -1.166121e+05 -1.166121e+05 -1.166121e+05 -1.122303e+05 3.910046e+05 3.910046e+05 3.910046e+05 4.071350e+05 4.071350e+05 -1.690134e+05 -1.690134e+05 -1.690134e+05 -1.538029e+05 4.388286e+05 4.388286e+05 4.388286e+05 4.250540e+05 5.650099e+05 5.650099e+05 5.650099e+05 5.737950e+05 -4.923180e+04 -4.923180e+04 -4.052532e+04 1.868068e+05 1.868068e+05 2.054967e+05 2.054967e+05 2.054967e+05 1.401728e+05 1.401728e+05 1.401728e+05 1.373316e+05 -1.666572e+05 -1.666572e+05 -1.666572e+05 -1.917464e+05 -1.917464e+05 7.546805e+05 7.546805e+05 7.546805e+05 7.351802e+05 7.351802e+05 1.915955e+05 4.529970e+05 4.529970e+05 4.593073e+05 -1.305512e+05 -1.305512e+05 -1.305512e+05 -1.582086e+05 -5.861257e+04 -5.861257e+04 -1.348130e+05 -1.348130e+05 6.492148e+05 6.492148e+05 6.521195e+05 5.518595e+05 5.518595e+05 -4.884837e+04 -4.884837e+04 -1.452121e+05 -1.452121e+05 5.018590e+05 5.018590e+05 5.018590e+05 4.958149e+05 1.719859e+05 1.654737e+05 2.794292e+05 2.794292e+05 2.794292e+05 2.789978e+05 3.387481e+05 3.387481e+05 3.387481e+05 3.299598e+05 3.299598e+05 -4.373931e+05 -4.373931e+05 -4.373931e+05 -4.662455e+05 -4.662455e+05 3.066892e+05 3.141768e+05 7.778019e+05 7.778019e+05 7.778019e+05 7.700738e+05 -2.037167e+05 -2.037167e+05 -2.037167e+05 -2.520294e+05 -2.520294e+05 -2.009178e+05 -2.007304e+05 1.878328e+05 1.878328e+05 1.878328e+05 1.793450e+05 1.793450e+05 1.018534e+05 1.045672e+05 1.045672e+05 -9.969878e+04 -9.969878e+04 -9.969878e+04 -9.912691e+04 -9.912691e+04 -6.824158e+04 -6.824158e+04 -6.824158e+04 -7.519155e+04 -7.519155e+04 -1.711255e+05 -1.711255e+05 -1.671709e+05 -1.671709e+05 1.773148e+05 1.773148e+05 1.701024e+05 -1.540416e+05 -1.540416e+05 -1.567955e+05 -1.567955e+05 -7.844014e+04 -7.844014e+04 -7.844014e+04 -6.667606e+04 4.813682e+04 4.813682e+04 4.813682e+04 3.334835e+04 3.334835e+04 3.832252e+05 4.131619e+05 3.391563e+05 1.310208e+05 1.310208e+05 1.310208e+05 1.408780e+05 1.408780e+05 1.642029e+05 1.642029e+05 1.692200e+05 1.121772e+05 1.121772e+05 1.110288e+05 1.019116e+05 1.806514e+05 1.806514e+05 1.806514e+05 1.718120e+05 1.718120e+05 1.718120e+05 2.115542e+05 2.115542e+05 2.115542e+05 4.608567e+04 5.476757e+04 1.452833e+05 2.147789e+05 2.147789e+05 2.147789e+05 2.052170e+05 2.482012e+05 2.482012e+05 2.482012e+05 2.545269e+05 2.545269e+05 2.545269e+05 2.477850e+05 -6.689219e+04 -6.689219e+04 -6.689219e+04 5.682439e+04 5.682439e+04 5.682439e+04 2.016637e+05 2.016637e+05 2.016637e+05 3.878390e+05 3.878390e+05 3.857520e+05 -9.597263e+04 -4.399564e+04 -4.399564e+04 4.795193e+05 4.795193e+05 4.795193e+05 5.111011e+05 5.111011e+05 1.444759e+05 1.444759e+05 -2.668928e+05 -2.428599e+05 -2.501110e+05 5.558177e+05 5.558177e+05 5.558177e+05 5.405130e+05 -1.416222e+04 -1.416222e+04 -1.416222e+04 1.674165e+05 1.660341e+05 1.606078e+05 5.158567e+04 5.158567e+04 5.158567e+04 -1.076250e+05 -1.076250e+05 -1.076250e+05 -1.098976e+05 -1.147771e+05 1.893229e+05 1.893229e+05 1.893229e+05 6.868811e+05 6.868811e+05 6.868811e+05 6.819812e+05 3.346102e+05 3.346102e+05 3.346102e+05 3.274877e+05 7.164394e+05 7.164394e+05 7.164394e+05 2.871626e+05 9.062044e+04 9.062044e+04 1.084242e+05 1.084242e+05 1.084242e+05 1.066106e+05 1.089497e+05 -5.321371e+05 -5.321371e+05 -5.478383e+05 -2.397355e+05 -1.766938e+05 4.850430e+05 4.850430e+05 -5.853494e+04 -5.853494e+04 -5.853494e+04 -6.301405e+04 -1.242993e+05 -1.242993e+05 -1.242993e+05 -1.734722e+05 3.946427e+05 3.784437e+05 3.784437e+05 2.584537e+04 2.584537e+04 2.584537e+04 2.538446e+04 -4.459351e+04 5.563881e+04 5.563881e+04 5.826482e+04 5.351743e+05 5.351743e+05 5.351743e+05 7.637841e+05 7.637841e+05 7.154699e+05 7.154699e+05 7.154699e+05 7.497066e+05 7.970839e+05 7.970839e+05 7.970839e+05 7.914273e+05 7.914273e+05 8.189361e+05 6.650511e+05 6.650511e+05 9.930119e+04 -3.746313e+04 -3.746313e+04 -3.917518e+04 2.905063e+04 8.395502e+05 7.910529e+05 8.395502e+05 8.395502e+05 4.140744e+05 4.140744e+05 4.140744e+05 3.889700e+05 3.889700e+05 5.036854e+05 5.036854e+05 5.304261e+05 5.304261e+05 4.377880e+05 4.377880e+05 4.377880e+05 4.578413e+05 4.578413e+05 1.432986e+05 1.432986e+05 1.432986e+05 1.491039e+05 1.491039e+05 5.653948e+05 5.653948e+05 5.653948e+05 5.286257e+05 5.286257e+05 2.769675e+05 2.769675e+05 2.769675e+05 1.613090e+05 -2.179601e+05 -2.179601e+05 -2.179601e+05 -1.957241e+05 -1.957241e+05 -1.168004e+05 -1.168004e+05 -1.168004e+05 -9.946363e+04 -9.946363e+04 -4.350785e+04 -4.350785e+04 -4.350785e+04 3.766697e+04 3.766697e+04 4.438093e+05 4.438093e+05 4.438093e+05 1.736426e+05 1.736426e+05 1.736426e+05 1.823556e+05 1.823556e+05 3.101087e+04 5.111067e+04 -1.543327e+04 -1.543327e+04 -1.543327e+04 -2.496886e+04 1.607029e+05 1.607029e+05 1.578073e+05 1.030419e+05 1.030419e+05 1.032409e+05 1.032409e+05 1.117277e+05 1.180888e+05 2.162828e+05 1.922642e+05 2.162828e+05 2.162828e+05 1.514683e+05 1.514683e+05 1.238191e+05 2.499196e+05 2.582516e+05 5.001685e+05 5.001685e+05 5.001685e+05 4.921441e+05 5.016922e+05 2.517781e+04 2.517781e+04 2.517781e+04 1.877499e+04 -1.154604e+05 -8.739998e+04 -5.057944e+05 -5.057944e+05 -5.057944e+05 -4.423926e+05 4.419399e+05 4.568581e+05 4.612741e+05 1.098333e+05 1.098333e+05 1.076159e+05 -1.215355e+05 -1.327744e+05 -1.327744e+05 -1.365010e+05 -2.136709e+05 -3.820446e+04 -6.081420e+04 -8.258629e+04 1.044297e+04 1.044297e+04 1.044297e+04 9.892911e+03 -9.131765e+04 -9.131765e+04 -9.131765e+04 -4.292101e+04 1.135177e+05 -8.920208e+03 -9.686467e+04 -9.686467e+04 3.201168e+05 3.201168e+05 3.201168e+05 4.972693e+03 7.250580e+05 7.250580e+05 3.810900e+04 3.810900e+04 3.810900e+04 3.940687e+05 -5.174367e+04 -5.174367e+04 2.053897e+04 -6.794852e+02 -6.794852e+02 -6.794852e+02 -3.784999e+03 -3.351752e+04 -5.678964e+04 -5.678964e+04 -8.250935e+04 -5.816326e+03 1.290473e+05 1.290473e+05 -8.789286e+04 -8.789286e+04 -8.789286e+04 -3.725879e+04 6.561786e+05 6.503432e+05 6.503432e+05 3.541024e+05 -1.063383e+05 -1.063383e+05 -1.169628e+05 6.998498e+05 6.998498e+05 6.485709e+05 4.678474e+05 -2.707233e+04 -3.655841e+04 -3.655841e+04 8.682338e+05 8.682338e+05 -3.949477e+04 7.590289e+05 7.590289e+05 -2.134037e+04 -2.134037e+04 -2.134037e+04 -2.140192e+04 -7.468262e+04 -7.468262e+04 -3.647080e+04 -3.647080e+04 -1.566669e+05 -1.844639e+05 2.655315e+05 2.674743e+05 -2.831084e+03 -7.374101e+04 -7.374101e+04 1.522068e+05 1.548150e+05 1.548150e+05 -4.190112e+04 -4.190112e+04 -1.541373e+05 -1.541373e+05 5.816738e+05 1.629062e+05 8.761431e+05 8.761431e+05 8.737299e+05 8.946976e+05 8.946976e+05 6.540161e+05 6.219598e+05 4.004035e+05 4.004035e+05 4.004035e+05 7.812155e+05 7.812155e+05 7.812155e+05 7.810708e+05 -2.902798e+04 -2.902798e+04 4.312720e+05 -1.779546e+05 -1.779546e+05 4.845684e+02 -6.715541e+04 4.675283e+04 4.675283e+04 4.675283e+04 -2.627643e+04 -2.627643e+04 6.330789e+05 6.010345e+05 6.010345e+05 2.380666e+05 2.388314e+05 2.078376e+05 2.096581e+05 -3.034070e+05 8.379802e+05 8.379802e+05 -7.020388e+04 -7.020388e+04 -7.020388e+04 -8.138112e+04 7.764612e+05 -3.122367e+04 -1.073873e+04 -1.073873e+04 -1.310581e+04 -4.105356e+04 -4.105356e+04 -1.423619e+05 -1.423619e+05 -4.874651e+04 3.740257e+05 3.616480e+05 3.616480e+05 6.196371e+04 8.531620e+05 8.531620e+05 8.142304e+05 8.142304e+05 8.167207e+04 8.167207e+04 8.167207e+04 -7.881017e+04 -7.881017e+04 -7.881017e+04 9.372729e+04 9.372729e+04 6.459917e+05 8.468163e+05 8.311799e+05 7.815089e+05 6.297645e+05 8.185840e+05 -1.884152e+05 2.474410e+05 2.524380e+05 -8.668261e+04 -8.668261e+04 4.948148e+05 4.266962e+05 -5.262759e+04 -7.163035e+04 7.296317e+04 7.296317e+04 9.285567e+05 8.867620e+05 8.623966e+05 8.623966e+05 8.623966e+05 8.953217e+05 6.877490e+05 6.501025e+05 7.309026e+05 7.257377e+05 2.278785e+05 2.278785e+05 2.228603e+05 6.139166e+05 -1.601927e+05 -1.131675e+05 4.816865e+05 4.140329e+05 4.140329e+05 4.140329e+05 5.053180e+04 -1.925845e+04 -1.925845e+04 -1.925845e+04 8.798316e+05 7.063095e+05 7.943853e+05 7.444910e+05 -4.663332e+04 3.596074e+05 7.691816e+05 8.173477e+05 -2.613224e+05 -3.820846e+05 -3.820846e+05 2.987875e+05 3.965397e+05 -1.630697e+05 -2.015946e+05 6.300575e+05 5.870668e+05 5.870668e+05 -1.976948e+05 -1.976948e+05 -2.199553e+05 -2.199553e+05 -3.015399e+04 4.909300e+05 1.478444e+05 -2.765109e+05 7.400588e+05 7.161491e+05 4.500043e+04 1.386857e+05 1.361630e+05 1.361630e+05 6.831674e+05 6.831674e+05 6.511621e+05 6.511621e+05 3.509331e+04 4.194133e+04 -7.117173e+04 -7.117173e+04 -5.966186e+04 4.759078e+03 4.759078e+03 -1.197883e+03 -1.197883e+03 -5.024808e+04 -5.024808e+04 -4.930758e+05 7.272517e+05 7.272517e+05 5.900349e+05 5.900349e+05 5.900349e+05 5.312576e+05 -1.764032e+05 -1.764032e+05 -1.286865e+05 -1.286865e+05 -3.287500e+05 -3.102483e+05 5.942220e+05 7.556464e+05 -9.639309e+04 -3.532294e+05 -3.532294e+05 7.720934e+04 7.720934e+04 8.566617e+04 -3.363804e+05 -3.363804e+05 -7.632148e+04 -7.632148e+04 6.951336e+05 6.951336e+05 2.431991e+05 8.468304e+05 3.702899e+05 3.702899e+05 3.651584e+05 1.490418e+05 1.543034e+05 -1.620594e+05 -2.048353e+05 -3.885543e+04 8.082384e+05 -4.854753e+05 -8.777912e+03 -8.777912e+03 -8.777912e+03 1.201525e+05 1.201525e+05 1.201525e+05 1.974860e+05 2.344030e+04 2.344030e+04 2.344030e+04 1.555085e+04 8.476850e+05 8.134102e+05 4.785082e+05 4.505260e+05 4.505260e+05 9.635897e+04 9.635897e+04 9.635897e+04 5.022062e+05 -1.946994e+05 7.710898e+05 8.361659e+05 8.361659e+05 8.100097e+05 1.217446e+05 -9.498943e+04 -9.498943e+04 -1.033616e+05 -4.446415e+04 -4.446415e+04 7.585276e+05 -1.617933e+05 -3.721741e+04 -3.324450e+04 -9.662444e+04 2.189401e+05 2.254326e+05 7.580096e+05 5.412407e+04 5.412407e+04 5.412407e+04 -8.588611e+04 -8.588611e+04 5.681734e+05 5.381003e+05 5.381003e+05 6.856075e+05 6.675320e+05 -1.731161e+05 -1.718215e+05 6.825920e+05 6.825920e+05 6.825920e+05 6.719036e+05 -1.654206e+05 -1.654206e+05 -1.493286e+05 -3.455447e+05 -3.455447e+05 2.496366e+05 2.496366e+05 2.496366e+05 2.547773e+05 -4.202931e+04 6.863788e+05 6.863788e+05 6.863788e+05 6.951464e+05 7.474744e+05 -1.307418e+05 -1.307418e+05 -1.336740e+05 -1.336740e+05 -1.901449e+05 5.671283e+05 5.671283e+05 8.462190e+04 7.851726e+04 4.963270e+05 4.963270e+05 -1.343722e+05 -1.402722e+05 6.640481e+05 7.910529e+05 7.733549e+05 -5.417810e+04 -5.434190e+04 7.409362e+05 2.487046e+04 2.487046e+04 2.369320e+04 2.369320e+04 -5.854796e+04 5.641483e+04 6.368067e+04 4.195709e+05 -2.589518e+04 -1.507565e+05 -1.343234e+05 5.544083e+05 5.544083e+05 7.801130e+05 7.801130e+05 7.801130e+05 7.478445e+05 -3.004518e+05 -3.004518e+05 -3.357464e+05 2.440502e+05 2.379083e+05 3.924710e+05 -4.280176e+05 -4.949501e+05 -4.949501e+05 -4.949501e+05 -4.621703e+05 5.099399e+03 9.268838e+05 6.591159e+05 6.173385e+05 6.173385e+05 -2.517251e+05 -2.517251e+05 -2.517251e+05 -2.735113e+05 7.274867e+05 7.274867e+05 6.227377e+05 6.227377e+05 6.066395e+05 4.530061e+05 3.357840e+05 7.312446e+05 -2.222360e+04 -2.830389e+04 7.378261e+05 7.296941e+05 1.558124e+05 3.588414e+05 3.588414e+05 3.588414e+05 3.695641e+05 -2.375610e+05 3.181981e+04 3.218786e+04 -3.413070e+05 -3.179211e+05 1.091283e+05 1.134893e+05 -9.485680e+04 -9.485680e+04 4.034660e+05 -6.336627e+04 -6.336627e+04 -5.586246e+04 -7.914534e+04 -7.914534e+04 9.616768e+03 -2.118576e+05 -2.118576e+05 -2.341365e+05 6.132811e+05 7.058902e+05 7.058902e+05 -9.400993e+03 -9.323307e+03 -9.323307e+03 2.752578e+05 -2.675310e+05 -3.286289e+05 -2.886016e+05 5.529792e+05 5.529792e+05 1.353589e+05 -4.360934e+04 2.684106e+05 2.608119e+05 2.361367e+05 5.512007e+05 5.512007e+05 3.725541e+05 3.725541e+05 3.725541e+05 2.263313e+05 2.249756e+05 4.714409e+05 4.662369e+05 4.662369e+05 1.391229e+05 1.317250e+05 1.317250e+05 3.022460e+05 2.070699e+05 2.148912e+05 6.565172e+05 6.437264e+05 6.437264e+05 6.437264e+05 6.656852e+05 -2.778895e+05 -1.269496e+05 2.395891e+03 7.901188e+03 -9.370167e+04 -9.370167e+04 -9.370167e+04 6.126358e+04 6.126358e+04 6.126358e+04 6.329439e+04 7.224693e+04 -2.426809e+05 -1.765110e+05 -1.708218e+05 4.045252e+04 4.045252e+04 -2.067431e+05 -1.713199e+05 -1.682155e+05 -1.682155e+05 2.367173e+04 -6.536958e+04 -6.536958e+04 -6.968731e+04 4.243113e+05 4.243113e+05 4.115911e+05 -2.328696e+04 -2.328696e+04 1.707259e+05 -1.299131e+05 -1.299131e+05 -1.380261e+05 -1.380261e+05 -2.238216e+05 -2.238216e+05 -2.238216e+05 6.254653e+05 5.923564e+05 5.923564e+05 -2.453590e+05 -2.453590e+05 -2.453590e+05 -3.095010e+05 -2.936377e+05 5.056687e+04 6.291740e+05 6.291740e+05 5.963484e+05 5.730767e+05 5.730767e+05 5.730767e+05 3.200633e+05 3.200633e+05 3.165125e+05 2.853388e+05 2.853388e+05 2.931897e+05 -2.545583e+05 -1.978409e+05 -1.978409e+05 6.872237e+05 6.502171e+05 -3.695761e+04 -3.695761e+04 -3.695761e+04 7.288317e+05 -1.555043e+05 -1.555043e+05 -1.497503e+05 -1.497503e+05 -2.328598e+05 -2.328598e+05 -2.136368e+05 -2.136368e+05 -2.344698e+05 -2.344698e+05 -2.897840e+05 2.465331e+05 2.430059e+05 -3.041733e+04 5.096352e+05 5.096352e+05 5.096352e+05 6.182576e+04 3.614925e+05 -2.117963e+05 3.216057e+05 6.929312e+05 -8.561569e+04 3.888410e+05 3.888410e+05 6.990033e+05 6.568450e+05 6.568450e+05 2.703263e+05 2.709972e+05 6.446902e+05 6.446902e+05 6.042341e+05 -1.691486e+05 -1.691486e+05 8.056413e+04 1.323877e+05 5.731817e+05 1.938909e+05 6.844165e+05 6.358457e+05 6.358457e+05 -4.416564e+04 3.889390e+04 1.571943e+04 6.254045e+05 6.495001e+05 -2.141139e+05 -2.141139e+05 -8.177278e+04 -8.177278e+04 1.463552e+05 -2.238687e+05 -2.257659e+05 -2.257659e+05 5.728002e+05 -5.462953e+04 -4.484718e+04 1.449675e+04 1.449675e+04 1.449675e+04 4.845166e+03 4.845166e+03 3.549775e+05 5.329879e+05 6.139265e+05 4.389921e+05 4.389921e+05 2.199003e+05 2.199003e+05 2.214263e+05 2.064706e+05 2.064706e+05 6.313972e+05 6.313972e+05 6.313972e+05 5.870356e+05 5.870356e+05 2.859650e+05 2.859650e+05 2.958882e+05 3.517828e+05 3.253842e+05 3.253842e+05 3.253842e+05 -1.224121e+05 3.749572e+05 3.575524e+05 3.575524e+05 -1.161791e+05 -1.095575e+05 -2.428599e+05 -2.135430e+05 5.762417e+05 2.694914e+05 2.576164e+05 6.502171e+05 4.492412e+05 4.492412e+05 4.230364e+05 4.230364e+05 4.735327e+05 4.732430e+05 5.742096e+05 -1.919914e+05 -1.342720e+05 -1.342720e+05 -1.364884e+05 -2.333821e+05 5.000663e+05 -2.410275e+05 7.131338e+04 -1.051571e+05 6.084484e+05 5.453240e+05 5.453240e+05 5.284505e+05 5.284505e+05 2.906689e+03 1.208102e+05 1.208102e+05 1.208102e+05 -3.393647e+04 4.840881e+05 1.672843e+05 -1.732244e+05 -1.762374e+05 -5.991255e+04 -2.241323e+05 -1.479948e+05 -1.640841e+05 -1.938056e+05 -1.938056e+05 -1.938056e+05 3.719348e+05 -1.444131e+04 -2.232104e+05 4.260106e+05 4.260106e+05 4.113738e+05 2.150151e+05 7.369605e+04 7.369605e+04 5.289105e+05 3.022841e+05 3.081160e+05 -2.126057e+05 2.049292e+05 2.049292e+05 2.213787e+05 -2.389965e+05 -1.927205e+05 -1.927205e+05 -2.042335e+05 1.261140e+05 1.261140e+05 1.261140e+05 2.411911e+05 2.607370e+04 1.763449e+05 9.192674e+03 1.072280e+03 1.072280e+03 -4.433843e+04 -9.767942e+04 3.613369e+05 3.613369e+05 4.603169e+05 -5.488818e+04 -5.488818e+04 -5.488818e+04 -5.986360e+04 5.638661e+05 2.654429e+05 5.366539e+05 4.955460e+05 1.026714e+05 3.354775e+05 3.412036e+05 5.315906e+05 2.519720e+05 2.488616e+05 -2.136833e+05 2.414866e+05 4.269701e+05 4.269701e+05 4.269701e+05 6.012617e+05 5.766652e+05 4.137273e+05 4.967796e+05 6.012617e+05 -1.731208e+05 -1.946924e+05 -8.540701e+04 2.988713e+05 2.752320e+05 1.912896e+05 -1.484136e+05 -1.484136e+05 -1.484136e+05 -4.910861e+04 5.001005e+05 5.001005e+05 5.297564e+05 5.297564e+05 2.226442e+05 -1.768174e+05 4.791571e+05 8.693655e+04 8.693655e+04 8.693655e+04 3.896738e+04 4.647696e+05 4.647696e+05 8.025857e+04 1.780588e+05 3.046450e+05 -1.466713e+05 4.205685e+05 4.205685e+05 4.205685e+05 -1.594319e+05 -1.594319e+05 -1.594319e+05 5.958412e+05 1.730436e+05 4.975662e+05 4.975662e+05 -1.788210e+05 -1.788210e+05 -1.788210e+05 -1.711776e+05 1.603792e+04 1.603792e+04 1.603792e+04 3.662125e+05 3.662125e+05 3.662125e+05 4.048410e+05 1.060419e+05 1.035394e+05 1.240511e+05 1.240511e+05 1.240511e+05 5.205067e+04 5.527934e+04 5.527934e+04 3.598119e+05 3.308252e+05 5.794334e+05 1.001786e+05 9.452397e+04 -1.264153e+05 -9.978755e+04 2.452347e+05 -6.429343e+04 -1.355075e+05 -1.355075e+05 -1.450249e+05 4.400786e+05 2.202199e+05 -5.474665e+04 -6.314925e+04 7.372146e+04 2.425668e+05 -1.162462e+04 -1.162462e+04 3.343914e+05 3.599908e+05 3.458728e+05 -7.393589e+04 1.706196e+05 4.469185e+05 -1.203843e+05 -1.203843e+05 -1.562560e+05 -1.562560e+05 3.750577e+05 3.750577e+05 3.750577e+05 3.521228e+05 3.521228e+05 2.375419e+05 3.988203e+05 3.895542e+05 3.895542e+05 -6.659440e+04 1.996380e+05 2.153012e+05 2.734437e+05 2.734437e+05 2.955227e+05 3.598175e+05 -1.170307e+05 -1.170307e+05 3.372077e+05 3.291470e+05 -1.264153e+05 -1.264153e+05 -7.130572e+04 -1.881127e+05 -1.881127e+05 -1.881127e+05 1.464312e+05 -7.828238e+04 -7.376510e+04 8.316114e+04 8.316114e+04 8.316114e+04 1.162566e+05 1.285762e+05 2.180573e+05 1.075840e+05 -6.546983e+04 2.715771e+05 2.715771e+05 2.715771e+05 2.593737e+05 -1.630607e+05 3.409363e+05 3.409363e+05 3.409363e+05 3.036859e+05 -1.026262e+05 3.177073e+05 3.177073e+05 1.512173e+05 -1.044059e+05 -1.044059e+05 -1.044059e+05 -1.076077e+05 -1.076077e+05 4.186159e+05 3.862129e+05 3.862129e+05 -9.104745e+04 -1.142454e+05 -1.142454e+05 2.514611e+05 -8.471357e+04 -8.471357e+04 -8.471357e+04 -6.566330e+04 -6.566330e+04 -6.566330e+04 1.206462e+05 1.206462e+05 1.304988e+05 3.705287e+04 -9.012152e+04 -9.012152e+04 1.141957e+05 1.815244e+05 1.815244e+05 1.649317e+05 1.649317e+05 3.104539e+05 3.375419e+04 1.444017e+04 1.444017e+04 -8.323954e+04 -8.323954e+04 7.926031e+04 7.926031e+04 9.990477e+04 2.294283e+05 2.294283e+05 2.136713e+05 2.136713e+05 4.466207e+04 2.353142e+05 3.512724e+05 3.418367e+05 3.418367e+05 2.185494e+05 1.563145e+05 7.084923e+04 3.205048e+05 3.205048e+05 2.334838e+05 3.391563e+05 3.391563e+05 -8.201637e+04 -8.201637e+04 2.561273e+05 2.982485e+05 2.982485e+05 2.982485e+05 2.775509e+05 2.775509e+05 3.157036e+05 1.840350e+05 1.840350e+05 2.826495e+05 2.826495e+05 2.666555e+05 7.013693e+04 1.472819e+05 -2.368329e+04 -3.365753e+04 3.078782e+05 3.078782e+05 -1.302097e+04 -1.302097e+04 1.180167e+05 1.180167e+05 -6.686213e+04 1.635924e+05 1.635924e+05 1.476684e+05 3.590776e+04 3.590776e+04 2.478990e+05 2.478990e+05 2.311731e+05 1.886202e+05 1.886202e+05 7.860450e+04 7.860450e+04 1.350851e+05 1.350851e+05 1.052195e+05 1.077813e+05 1.077813e+05 -2.272351e+04 8.391631e+03 6.546974e+04 1.807046e+05 1.820165e+05 2.876322e+05 2.818802e+05 2.467893e+05 2.467893e+05 2.845310e+05 3.605882e+04 3.605882e+04 1.632194e+04 2.062337e+05 2.807812e+05 2.994077e+05 2.994077e+05 1.027368e+05 1.027368e+05 2.523805e+05 2.771796e+05 7.070051e+04 7.070051e+04 2.359180e+05 2.359180e+05 5.087121e+02 3.018440e+04 3.018440e+04 3.018440e+04 1.428042e+04 1.428042e+04 2.317766e+05 2.165904e+05 1.900095e+05 1.900095e+05 2.103500e+05 2.103500e+05 2.299974e+05 5.982482e+04 2.660958e+05 2.404194e+05 1.548537e+05 1.306491e+05 1.798904e+05 1.521051e+05 2.060395e+05 8.727415e+04 1.407597e+05 1.698927e+05 1.549951e+05 1.612036e+05 1.991159e+05 1.922642e+05 1.083436e+05 1.083436e+05 1.541230e+05 1.469188e+05 1.783469e+05 9.687182e+04 1.032407e+05 1.614508e+05 1.614508e+05 1.598482e+05 1.598482e+05 1.212332e+05 1.212332e+05 1.499439e+05 1.375098e+05 1.375098e+05 1.375098e+05 1.377200e+05 1.377200e+05 6.332426e+04 6.332426e+04 6.332426e+04 1.907049e+04 1.907049e+04 -4.771390e+04 -3.849978e+04 8.805741e+04 -4.771390e+04 -4.771390e+04 -5.743466e+04 -2.414347e+03 2.552681e+04 3.957356e+04 4.502318e+04 4.634756e+04 6.808552e+04 6.988400e+04 8.415365e+04 8.415365e+04 1.178138e+05 -6.429804e+04 8.805741e+04 2.775574e+05 2.176295e+05 1.495775e+05 2.773028e+05 2.773028e+05 2.479495e+05 2.456745e+05 2.479495e+05 1.205389e+05 2.320828e+05 1.333279e+05 9.451775e+04 9.699623e+04 9.699623e+04 1.402568e+05 9.285567e+05 9.285567e+05 9.268838e+05 9.256692e+05 9.222784e+05 9.194283e+05 9.118763e+05 9.071546e+05 9.019524e+05 8.954351e+05 8.901751e+05 8.839012e+05 8.769579e+05 8.707247e+05 8.654532e+05 8.557842e+05 8.504860e+05 8.432148e+05 8.401679e+05 8.330571e+05 8.276012e+05 8.194631e+05 8.110806e+05 8.025281e+05 7.914421e+05 7.866801e+05 7.784471e+05 7.710935e+05 7.616216e+05 7.521844e+05 7.455279e+05 7.354823e+05 7.257871e+05 7.149476e+05 7.048295e+05 6.981224e+05 6.897848e+05 6.792090e+05 6.717381e+05 6.640003e+05 6.540161e+05 6.430363e+05 6.330789e+05 6.211370e+05 6.122124e+05 6.026106e+05 5.904130e+05 5.775836e+05 5.667092e+05 5.557412e+05 5.443219e+05 5.330623e+05 5.225803e+05 5.102737e+05 4.960836e+05 4.856336e+05 4.713609e+05 4.614028e+05 4.500914e+05 4.387187e+05 4.278011e+05 4.158767e+05 4.041940e+05 3.946427e+05 3.850700e+05 3.740257e+05 3.618394e+05 3.520474e+05 3.410050e+05 3.301425e+05 3.178070e+05 3.092084e+05 2.986900e+05 2.883191e+05 2.771169e+05 2.684985e+05 2.577179e+05 2.476408e+05 2.380666e+05 2.282492e+05 2.170852e+05 2.078376e+05 1.978658e+05 1.891092e+05 1.797087e+05 1.700972e+05 1.607831e+05 1.522068e+05 1.422776e+05 1.339315e+05 1.257647e+05 1.174861e+05 1.092762e+05 1.016964e+05 9.395409e+04 8.631578e+04 7.922381e+04 7.278394e+04 6.565619e+04 5.768278e+04 5.140406e+04 4.536386e+04 4.003161e+04 3.381483e+04 2.819869e+04 2.293087e+04 1.857034e+04 1.397321e+04 9.223992e+03 5.540051e+03 1.404825e+03 -3.498884e+02 -5.478184e+03 -1.076932e+04 -1.398221e+04 -1.605921e+04 -1.806160e+04 -2.120835e+04 -2.374167e+04 -2.707233e+04 -2.739050e+04 -2.800494e+04 -2.479139e+04 -2.753795e+04 -2.924040e+04 -2.847158e+04 -2.794207e+04 -2.309029e+04 -1.830629e+04 -2.478672e+04 -2.670535e+04 -2.449948e+04 -2.721915e+04 -2.132932e+04 -2.763123e+04 -2.716166e+04 -2.053430e+04 -2.384001e+04 -1.781361e+04 -1.350813e+04 -1.879321e+04 -1.765092e+04 -1.459180e+04 -8.796787e+03 -2.831084e+03 -1.850242e+04 -8.920208e+03 -1.508850e+04 -9.009500e+03 -1.844353e+04 -1.687009e+04 -6.767823e+03 -3.188873e+01 -1.508678e+04 -2.208397e+04 1.120596e+03 -5.816326e+03 -6.904014e+03 -8.863848e+03 -1.099130e+04 2.654736e+03 -1.175239e+04 -8.841126e+03 4.051503e+02 6.269462e+02 -1.714577e+04 -1.779104e+04 -1.393245e+04 2.333599e+03 -2.691206e+04 -2.983284e+04 -1.072356e+04 -8.563087e+03 -1.078376e+02 -9.064979e+03 -8.535702e+03 -3.387433e+04 -2.548992e+04 -3.864022e+03 -2.904921e+02 -5.019250e+04 1.103223e+05 1.103223e+05 1.103223e+05 1.279592e+05 1.279592e+05 1.279592e+05 1.319362e+05 1.283898e+05 1.514683e+05 1.393998e+05 1.746196e+05 1.746196e+05 1.746196e+05 1.745321e+05 5.098387e+04 5.098387e+04 5.098387e+04 5.071365e+04 5.688031e+04 4.465858e+05 4.465858e+05 4.465858e+05 4.429183e+05 4.481845e+05 4.481845e+05 4.481845e+05 4.339347e+05 8.430595e+04 8.430595e+04 8.430595e+04 9.076869e+04 9.600609e+04 9.635718e+04 -1.239747e+05 -1.239747e+05 -1.239747e+05 -1.366121e+05 -1.366121e+05 4.848533e+05 4.848533e+05 4.848533e+05 4.720411e+05 -1.795674e+05 -1.795674e+05 -1.795674e+05 -2.075485e+05 -2.075485e+05 7.879778e+05 7.879778e+05 7.879778e+05 2.619198e+05 2.619198e+05 2.619198e+05 2.661768e+05 1.742277e+05 1.742277e+05 1.742277e+05 5.138289e+05 5.138289e+05 5.138289e+05 5.334525e+05 -3.685858e+04 -3.685858e+04 -6.668755e+04 -6.668755e+04 3.068976e+05 3.068976e+05 3.127423e+05 5.151642e+05 5.151642e+05 5.151642e+05 5.495165e+05 5.495165e+05 -3.618284e+05 -3.618284e+05 -3.618284e+05 -3.242748e+05 -3.242748e+05 7.614656e+04 7.614656e+04 7.614656e+04 6.720110e+04 6.720110e+04 4.669938e+05 4.669938e+05 2.968180e+05 2.968180e+05 2.968180e+05 2.951357e+05 1.818267e+05 1.818267e+05 1.818267e+05 1.772477e+05 1.765187e+05 3.374870e+05 3.374870e+05 3.374870e+05 2.799106e+05 2.799106e+05 2.815985e+05 6.981224e+05 6.835978e+05 6.835978e+05 -1.078376e+02 -1.490013e+05 -1.490013e+05 1.736130e+05 -2.924040e+04 -3.459652e+04 1.645176e+05 1.256372e+05 1.256372e+05 1.256372e+05 1.320698e+05 7.208160e+04 1.261452e+05 1.261452e+05 1.261452e+05 1.372941e+05 1.372941e+05 3.436581e+04 3.436581e+04 3.436581e+04 4.663682e+04 -4.409955e+04 -4.409955e+04 -4.409955e+04 -3.797531e+04 4.259864e+05 4.202377e+05 4.061310e+05 4.571068e+05 4.571068e+05 1.459652e+05 1.459652e+05 1.459652e+05 1.520120e+05 3.163833e+05 3.163833e+05 3.163833e+05 3.235612e+05 3.235612e+05 3.135482e+05 -7.358172e+04 -7.358172e+04 -7.358172e+04 -7.709822e+04 -4.804779e+04 -4.804779e+04 -4.804779e+04 -6.062539e+04 -3.143210e+04 2.556256e+05 2.556256e+05 2.556256e+05 2.556951e+05 -2.136833e+05 -2.501110e+05 3.738893e+04 3.738893e+04 3.738893e+04 4.451938e+04 -1.166121e+05 -1.166121e+05 -1.166121e+05 -1.122303e+05 3.910046e+05 3.910046e+05 3.910046e+05 4.071350e+05 4.071350e+05 -1.690134e+05 -1.690134e+05 -1.690134e+05 -1.538029e+05 4.388286e+05 4.388286e+05 4.388286e+05 4.250540e+05 5.650099e+05 5.650099e+05 5.650099e+05 5.737950e+05 -4.923180e+04 -4.923180e+04 -4.052532e+04 1.868068e+05 1.868068e+05 2.054967e+05 2.054967e+05 2.054967e+05 1.401728e+05 1.401728e+05 1.401728e+05 1.373316e+05 -1.666572e+05 -1.666572e+05 -1.666572e+05 -1.917464e+05 -1.917464e+05 7.546805e+05 7.546805e+05 7.546805e+05 7.351802e+05 7.351802e+05 1.915955e+05 4.529970e+05 4.529970e+05 4.593073e+05 -1.305512e+05 -1.305512e+05 -1.305512e+05 -1.582086e+05 -5.861257e+04 -5.861257e+04 -1.348130e+05 -1.348130e+05 6.492148e+05 6.492148e+05 6.521195e+05 5.518595e+05 5.518595e+05 -4.884837e+04 -4.884