<?xml version="1.0"?>
 <VTKFile type="UnstructuredGrid" version="1.0" byte_order="LittleEndian" header_type="UInt64">
  <UnstructuredGrid>
    <FieldData>
     <DataArray type="Float64" Name="TimeValue" NumberOfTuples="1" format="ascii">
0.00032
     </DataArray>
    </FieldData>
   <Piece NumberOfPoints="3548" NumberOfCells="3379">
    <PointData>
     <DataArray type="Float64" Name="pointP" format="ascii">
-1.217759e+04 -1.426103e+04 -1.660341e+04 -1.922331e+04 -2.206543e+04 -2.327452e+04 -2.471077e+04 -2.737215e+04 -3.046323e+04 -3.137608e+04 -2.953776e+04 -2.621208e+04 -2.418398e+04 -2.947315e+04 -3.021064e+04 -3.456552e+04 -3.251690e+04 -2.533553e+04 -2.366869e+04 -2.760186e+04 -2.782749e+04 -2.046090e+04 -2.213281e+04 -2.718557e+04 -2.138599e+04 -1.268566e+04 -8.156179e+03 -1.664959e+04 -2.025894e+04 -3.111979e+03 -1.760364e+03 -8.775928e+02 -1.887324e+03 -2.160766e+03 -7.399284e+03 -1.105639e+04 -2.025913e+03 -7.017510e+03 -4.709403e+03 2.397553e+04 7.673350e+02 -6.713239e+03 1.142724e+03 1.426359e+03 1.526916e+05 9.066202e+04 -1.605690e+05 6.301057e+03 1.178608e+04 -2.981991e+04 -1.345788e+04 -2.619735e+04 -1.424537e+04 -1.656915e+03 8.195105e+02 -3.562547e+03 5.159613e+02 6.685492e+02 7.659790e+03 -2.866126e+04 1.305730e+05 -1.278126e+04 -1.736001e+04 -4.295646e+04 -2.359660e+04 -3.809648e+03 -1.381345e+04 -6.744317e+03 -5.269351e+03 3.936707e+04 1.729004e+03 -1.041083e+04 1.003385e+02 -7.779706e+03 1.501095e+03 1.330624e+03 1.218266e+05 -1.393078e+05 -4.693919e+05 -3.494573e+05 -2.663751e+05 -2.663751e+05 -2.642907e+05 -2.315157e+05 -2.148831e+05 -2.108862e+05 -2.108862e+05 -2.060759e+05 -1.926343e+05 -1.858199e+05 -1.818491e+05 -1.810726e+05 -1.763944e+05 -1.741425e+05 -1.692174e+05 -1.592925e+05 -1.548300e+05 -1.507345e+05 -1.435166e+05 -1.404672e+05 -1.372958e+05 -1.316937e+05 -1.316937e+05 -1.270632e+05 -1.200737e+05 -1.183435e+05 -1.144283e+05 -1.118049e+05 -1.081593e+05 -1.026269e+05 -9.729177e+04 -9.579946e+04 -9.348322e+04 -8.872277e+04 -8.678273e+04 -7.996736e+04 -7.842436e+04 -7.568262e+04 -7.266532e+04 -7.111483e+04 -6.518819e+04 -6.417445e+04 -6.000362e+04 -5.715310e+04 -5.511584e+04 -5.053942e+04 -4.954158e+04 -4.420550e+04 -4.420550e+04 -4.152896e+04 -3.753843e+04 -3.240219e+04 -3.240219e+04 -2.829944e+04 -2.460736e+04 -2.460736e+04 -2.123710e+04 -1.801525e+04 -1.599627e+04 -1.218258e+04 -1.218258e+04 -7.732865e+03 -7.732865e+03 -5.156282e+03 -2.836317e+03 3.465515e+02 2.374133e+03 4.084183e+03 8.254191e+03 8.254191e+03 1.123048e+04 1.329522e+04 1.526510e+04 1.830350e+04 1.830350e+04 -3.287447e+03 -3.287447e+03 -3.287447e+03 5.061495e+01 6.064907e+04 6.064907e+04 6.064907e+04 2.684290e+04 2.684290e+04 2.684290e+04 3.605441e+04 -3.610215e+04 -3.610215e+04 -3.610215e+04 -4.384117e+04 -8.472383e+04 -8.472383e+04 -8.472383e+04 -9.396757e+04 -2.233529e+05 -2.233529e+05 -2.233529e+05 -2.187344e+05 -2.095899e+05 -1.733000e+05 -1.733000e+05 -1.733000e+05 -1.697947e+05 -2.035816e+01 -2.035816e+01 -2.035816e+01 -6.970205e+04 -6.970205e+04 -6.970205e+04 -6.588360e+04 -6.738305e+04 -2.737674e+05 -2.737674e+05 -2.737674e+05 -3.374530e+05 -2.556871e+04 -2.556871e+04 -2.556871e+04 -1.795528e+04 -1.795528e+04 -8.070199e+04 -8.070199e+04 -8.070199e+04 -8.680783e+04 -1.179910e+05 -6.827971e+04 -6.827971e+04 -6.827971e+04 -1.224916e+05 -1.963383e+05 -1.268051e+05 -1.268051e+05 -1.268051e+05 -1.363242e+05 -2.052459e+05 -2.052459e+05 -2.052459e+05 -1.662044e+04 -1.662044e+04 -4.546628e+04 -4.546628e+04 -1.161570e+05 -1.161570e+05 -1.161570e+05 -3.220346e+04 -1.742923e+05 -1.742923e+05 -1.742923e+05 -4.422472e+04 -3.798177e+05 -3.798177e+05 -6.030347e+05 -6.030347e+05 -2.920670e+05 -2.920670e+05 -2.920670e+05 -2.544505e+05 -2.544505e+05 -5.504743e+05 -5.504743e+05 -5.504743e+05 -4.833426e+05 -4.833426e+05 -1.399243e+04 -2.365037e+05 -2.365037e+05 -2.365037e+05 -2.346143e+05 -5.449667e+04 -5.449667e+04 -5.449667e+04 -5.779447e+04 -5.779447e+04 -9.936897e+04 -9.936897e+04 -9.936897e+04 -8.812653e+04 -8.812653e+04 -1.384020e+05 -1.384020e+05 -1.384020e+05 -1.389361e+05 -1.389361e+05 -1.662185e+05 -1.662185e+05 -1.662185e+05 -1.564969e+05 -1.564969e+05 -1.768517e+04 -1.768517e+04 -1.768517e+04 -1.607080e+04 -2.177592e+04 -2.177592e+04 -2.177592e+04 -3.009397e+04 -1.104928e+05 -1.104928e+05 -1.104928e+05 -1.196407e+05 -1.196407e+05 3.194001e+04 3.194001e+04 3.194001e+04 -2.932017e+04 -2.932017e+04 -2.932017e+04 -2.578731e+04 -2.578731e+04 2.212832e+04 2.212832e+04 2.212832e+04 3.454757e+04 3.454757e+04 -4.795243e+04 -4.795243e+04 -4.795243e+04 -3.678055e+04 -1.112295e+05 -1.112295e+05 -1.846916e+05 -1.846916e+05 -1.846916e+05 -5.380824e+04 -5.380824e+04 -4.219421e+04 -4.219421e+04 -3.438423e+04 -3.438423e+04 -3.438423e+04 -3.479294e+04 -3.413143e+05 -3.413143e+05 -3.413143e+05 -2.912878e+05 -3.298746e+04 -3.298746e+04 -3.119803e+05 -3.119803e+05 -3.119803e+05 -9.520713e+04 -9.520713e+04 -9.520713e+04 -1.079233e+05 -1.079233e+05 -5.627687e+05 -5.627687e+05 -5.627687e+05 -5.851181e+05 -5.851181e+05 -1.784259e+05 -1.784259e+05 -1.299212e+05 -1.778055e+05 -1.778055e+05 -1.778055e+05 -4.020517e+04 -4.020517e+04 -2.025894e+04 -1.261852e+05 -1.261852e+05 -1.261852e+05 -7.730399e+04 -8.390236e+04 -4.150754e+04 -1.011013e+05 -1.011013e+05 -1.011013e+05 -1.794581e+05 -1.794581e+05 -1.794581e+05 -1.507058e+05 -1.507058e+05 -1.507058e+05 -3.785472e+05 -3.785472e+05 -3.785472e+05 -2.928030e+05 -2.928030e+05 -2.067980e+05 -2.067980e+05 -2.067980e+05 -2.123241e+05 -2.123241e+05 -1.968956e+05 -1.968956e+05 -1.867314e+05 -1.867314e+05 -2.042885e+05 -2.042885e+05 -1.979714e+05 4.313697e+03 4.313697e+03 8.639027e+03 8.639027e+03 -1.993644e+04 -1.993644e+04 7.956543e+04 7.340128e+04 7.956543e+04 7.956543e+04 -7.628149e+04 -9.267501e+04 -9.267501e+04 -1.882085e+05 -1.882085e+05 -1.882085e+05 -1.987018e+05 -1.987018e+05 -1.987018e+05 -3.923839e+04 -9.423105e+04 -9.423105e+04 -7.057702e+04 -7.057702e+04 -8.160657e+04 -4.981788e+04 -3.685526e+04 -1.278126e+04 -2.100352e+05 -2.100352e+05 -9.352001e+04 -9.352001e+04 -3.067209e+04 -1.760364e+03 -1.096447e+05 -1.096447e+05 -1.803367e+05 -1.803367e+05 -1.803367e+05 -5.743848e+04 -2.581717e+05 -2.206543e+04 -2.851431e+04 -2.851431e+04 -7.399284e+03 -8.925031e+04 -8.925031e+04 -1.399243e+04 -6.253725e+04 -6.253725e+04 -2.743334e+04 -4.155577e+04 -4.155577e+04 -4.155577e+04 -4.145412e+04 -1.083166e+05 -1.083166e+05 -4.833860e+04 -5.733605e+04 -5.733605e+04 -5.733605e+04 -3.962693e+04 -3.962693e+04 -5.369354e+04 -3.633612e+04 -3.633612e+04 -2.749654e+04 -2.737215e+04 -2.923771e+04 -5.323567e+04 -5.323567e+04 -1.902389e+05 -1.390440e+05 -2.089658e+05 -2.089658e+05 -1.745046e+05 5.159613e+02 -1.374840e+05 -1.374840e+05 -5.870813e+04 -2.327452e+04 -3.311914e+04 -2.229240e+05 -7.634711e+04 -6.050419e+04 -4.765384e+04 -4.765384e+04 -1.247129e+05 -1.392670e+05 -3.023317e+05 -1.259527e+05 -1.259527e+05 -1.259527e+05 -1.110879e+05 -1.110879e+05 -2.741441e+04 -2.741441e+04 -2.413243e+04 -3.523463e+04 -5.052827e+04 -6.480253e+05 -2.192887e+05 -2.192887e+05 -2.150690e+04 -1.107986e+05 -1.743861e+05 -1.157371e+05 -3.239128e+04 -1.326141e+05 -8.176489e+04 -2.129608e+05 -2.432095e+05 -2.432095e+05 -1.244332e+05 -1.939663e+05 -2.052614e+05 -2.894751e+05 -4.882504e+05 -4.082361e+04 -4.082361e+04 -4.051787e+04 -2.117623e+05 -2.134082e+05 -2.134082e+05 -2.563965e+05 -6.146203e+04 -6.146203e+04 -6.146203e+04 -6.524024e+04 -6.073363e+05 -3.127776e+05 -9.039431e+04 -9.039431e+04 -9.039431e+04 -8.559034e+04 -1.953960e+05 -2.307510e+05 -4.232313e+05 -4.232313e+05 -1.397704e+05 -1.541972e+05 -1.533152e+05 -1.683836e+05 -2.275593e+05 -5.317369e+04 -3.605812e+05 -3.509233e+05 -3.509233e+05 -3.461292e+05 -3.461292e+05 -4.505865e+05 -4.505865e+05 -1.350607e+05 -1.350607e+05 -4.299928e+05 -2.645225e+05 -4.668552e+04 -4.668552e+04 -9.547389e+04 -9.547389e+04 -6.379216e+04 -2.189179e+05 -7.293405e+04 -7.289531e+04 -2.497781e+05 -2.380229e+05 -6.171827e+05 -6.171827e+05 -5.050069e+05 -5.492913e+05 -2.238327e+04 -5.057070e+05 -5.057070e+05 -2.209064e+05 -2.073678e+05 -6.273535e+05 -5.758027e+05 -5.209094e+05 -1.934050e+05 -3.065330e+05 -6.683832e+04 -6.683832e+04 -1.757316e+05 -2.464741e+04 -4.532742e+05 -2.759777e+05 -4.358613e+04 -1.304160e+05 -1.304160e+05 -1.304160e+05 -1.262306e+05 -1.262306e+05 -1.694889e+05 -1.735025e+05 -1.138715e+05 -1.136685e+05 -2.982747e+05 -5.059464e+05 -8.447318e+04 -2.294036e+05 -5.921331e+05 -1.560844e+05 -3.093257e+05 -2.673603e+05 -2.673603e+05 -2.673603e+05 -1.867431e+05 -1.682306e+05 -8.772087e+04 -8.320942e+04 -3.333774e+05 -3.333774e+05 -3.023812e+05 -2.325214e+05 -2.325214e+05 -2.489468e+05 -2.489468e+05 -9.900387e+04 -2.477821e+05 -2.681180e+05 -2.681180e+05 -1.261994e+05 -1.261994e+05 -8.225403e+04 -1.136125e+05 -1.136125e+05 -1.146622e+05 -2.308548e+05 -2.308548e+05 -2.344114e+05 -2.344114e+05 -2.344114e+05 -2.381953e+05 -9.211307e+04 -2.516712e+04 -1.869817e+05 -1.869817e+05 -1.866099e+05 -1.703613e+04 -1.083068e+05 -9.859400e+04 -2.141840e+05 -3.809628e+05 -7.112244e+04 -6.744811e+04 -1.588991e+05 -1.588991e+05 -7.460214e+04 -7.460214e+04 -1.520740e+05 -2.226460e+05 -2.130969e+05 -2.130969e+05 -1.128753e+05 -1.055655e+05 -1.703613e+04 -1.144006e+05 -1.359063e+05 -1.359063e+05 -6.596531e+04 -2.181447e+05 -2.181447e+05 -2.391356e+05 -2.351541e+05 -2.351541e+05 -2.134521e+04 -2.134521e+04 -2.802288e+04 -1.227394e+05 -1.227394e+05 -1.227394e+05 -1.283487e+05 -2.413769e+05 -4.032023e+04 -7.650842e+03 -1.108378e+05 -1.108378e+05 -1.706929e+05 -1.706929e+05 -1.816776e+05 -1.549610e+04 -1.815464e+05 -1.958328e+05 -1.958328e+05 -1.195099e+05 -2.361286e+05 -2.361286e+05 -2.196684e+05 -1.930952e+05 -1.026963e+05 -1.729264e+05 -1.729264e+05 -1.729264e+05 -4.122451e+04 -5.382890e+04 -1.550523e+05 -1.403902e+05 -1.403902e+05 -1.421246e+05 -1.421246e+05 -1.421246e+05 -1.589317e+05 -2.099960e+05 -1.092074e+05 -1.092074e+05 -9.843483e+04 -1.945351e+05 -1.493030e+05 -1.493030e+05 -1.493030e+05 -1.580770e+05 -1.290092e+05 -1.235917e+05 1.210143e+04 -1.115334e+04 -1.536439e+04 -5.714000e+04 -1.089471e+05 -9.497389e+04 -8.155703e+04 -8.155703e+04 -1.591371e+05 -1.591371e+05 -1.829658e+05 -1.761169e+05 -7.604472e+04 -7.604472e+04 -7.604472e+04 -1.576690e+05 1.004816e+03 -1.423726e+05 8.978266e+03 1.183325e+04 -9.169703e+04 -8.052182e+04 -1.515545e+05 -1.710374e+05 -1.511103e+05 -1.363899e+05 -1.363899e+05 -5.012589e+04 -5.012589e+04 -5.012589e+04 3.268552e+04 -9.178649e+04 -8.340864e+04 -8.133444e+04 -4.765733e+04 -7.354839e+04 -6.428336e+04 1.138002e+04 -9.403786e+03 -1.050447e+05 -1.050447e+05 -1.050447e+05 -1.244519e+05 -1.309694e+05 -4.442033e+04 -4.442033e+04 -8.485188e+04 -8.485188e+04 -1.987388e+04 -1.024517e+04 -6.454973e+04 -2.042167e+03 -5.818425e+04 4.514740e+04 -1.503445e+04 -1.503445e+04 2.037483e+04 3.812988e+04 3.812988e+04 1.294249e+03 1.294249e+03 1.720515e+04 1.720515e+04 -1.662318e+04 3.184060e+04 3.184060e+04 -3.256102e+03 4.898419e+04 6.520095e+04 7.340968e+04 1.339580e+04 1.339580e+04 1.339580e+04 -1.727398e+05 -1.727398e+05 -1.727398e+05 -1.751618e+05 -1.751618e+05 1.949004e+03 1.949004e+03 1.949004e+03 7.054212e+03 -1.804958e+05 -1.804958e+05 -1.782046e+05 -1.782046e+05 -2.521597e+05 -2.521597e+05 -2.521597e+05 -5.999055e+03 -5.999055e+03 -5.999055e+03 -6.476886e+03 -7.603527e+04 -7.603527e+04 -7.603527e+04 -6.952350e+04 -5.702699e+04 -5.702699e+04 -1.006203e+05 -1.006203e+05 -1.006203e+05 -1.191203e+05 -1.191203e+05 -1.191203e+05 -1.511994e+05 -1.511994e+05 -1.511994e+05 -1.589245e+05 -1.589245e+05 -1.589245e+05 -1.611976e+05 -2.996524e+04 -2.996524e+04 -2.996524e+04 -5.317483e+04 -5.317483e+04 -5.317483e+04 -1.971016e+04 -1.971016e+04 -1.971016e+04 -3.564543e+04 -3.564543e+04 -3.564543e+04 -4.225083e+04 -4.225083e+04 1.626967e+04 1.626967e+04 4.741165e+03 -7.988051e+03 3.692754e+04 3.692754e+04 3.692754e+04 -3.265582e+04 -3.265582e+04 -1.105747e+05 -1.105747e+05 -1.105747e+05 -8.153205e+04 -8.153205e+04 -8.153205e+04 -1.154959e+05 -1.154959e+05 -1.154959e+05 -1.200624e+05 -1.306380e+05 -1.306380e+05 -1.306380e+05 -1.287104e+05 -1.358012e+05 -1.358012e+05 -1.358012e+05 -1.112920e+05 -1.112920e+05 -1.112920e+05 -1.118958e+05 -1.146251e+05 -8.504739e+04 -8.504739e+04 -8.504739e+04 -1.351463e+05 -1.351463e+05 -1.213000e+05 -1.213000e+05 -1.175580e+05 -1.067981e+05 -1.067981e+05 -6.966451e+04 -6.966451e+04 -6.966451e+04 -5.743033e+04 -5.743033e+04 -5.905999e+04 -5.905999e+04 -5.905999e+04 -1.172795e+05 -3.660576e+04 -3.660576e+04 -3.660576e+04 5.028058e+02 -5.695246e+03 6.478164e+04 6.478164e+04 2.461454e+04 2.461454e+04 -6.014547e+04 -6.014547e+04 -6.014547e+04 -5.537394e+04 -5.079308e+04 -1.705303e+05 -1.705303e+05 -1.139244e+05 -1.810071e+05 -1.370947e+05 -1.370947e+05 -1.370947e+05 -9.874332e+04 -1.554367e+05 -1.554367e+05 -1.127406e+05 -8.803623e+04 -8.803623e+04 -8.747938e+04 -4.064304e+04 -4.064304e+04 -7.970556e+04 -7.970556e+04 -7.970556e+04 -2.095412e+05 -2.095412e+05 -2.095412e+05 -1.627962e+05 -1.662794e+05 -4.156899e+04 -1.881567e+05 -1.881567e+05 -1.881567e+05 -1.961936e+05 -1.401695e+05 -1.401695e+05 -6.924738e+04 -6.924738e+04 -1.026078e+05 -1.552220e+05 -1.552220e+05 -1.471772e+05 -1.471772e+05 -9.801746e+04 -9.801746e+04 -9.801746e+04 -1.789884e+04 -1.789884e+04 6.164501e+01 6.164501e+01 -1.257269e+05 -8.915243e+04 -8.915243e+04 -8.915243e+04 -1.049003e+05 -1.049003e+05 -5.537661e+04 -5.537661e+04 -1.722480e+05 -1.722480e+05 -8.320366e+03 -8.320366e+03 -9.348085e+04 -7.302167e+04 -7.302167e+04 -7.291801e+04 -7.291801e+04 -1.508036e+05 -1.508036e+05 -1.508036e+05 -7.815677e+04 -7.815677e+04 -7.815677e+04 -1.586556e+05 -1.200920e+05 -1.056022e+05 -9.983248e+04 -9.983248e+04 -9.604723e+04 -1.436295e+05 -6.627292e+04 -6.627292e+04 -5.078144e+04 -5.078144e+04 -5.078144e+04 -1.639445e+05 -1.631301e+05 -1.631301e+05 -4.847936e+04 -4.847936e+04 -4.568669e+04 -7.335161e+04 -7.426209e+04 -7.426209e+04 -1.510532e+04 -1.510532e+04 -1.510532e+04 -4.155161e+04 -4.155161e+04 -2.846628e+03 -5.926938e+04 -9.752739e+04 -9.752739e+04 1.955876e+04 -1.064659e+05 -1.064659e+05 -9.106866e+04 -8.267494e+04 -8.267494e+04 -8.289412e+04 -2.724098e+04 -2.724098e+04 -1.137809e+05 -1.137809e+05 -4.050584e+04 -8.318895e+04 -8.318895e+04 -6.944254e+04 -6.944254e+04 -6.699941e+04 -4.412908e+04 -9.469021e+04 -9.469021e+04 -6.464561e+04 -7.183891e+04 -1.478066e+05 -1.478066e+05 -9.995648e+04 -8.654753e+04 -1.733825e+04 -1.733825e+04 -1.733825e+04 -2.637145e+04 -2.637145e+04 -2.637145e+04 -5.923569e+04 -5.923569e+04 1.819754e+03 1.819754e+03 1.819754e+03 -7.859752e+04 -1.687877e+04 -2.691658e+04 -2.473128e+04 -9.267713e+03 -9.267713e+03 -9.267713e+03 -6.383154e+04 -3.445050e+04 -3.445050e+04 -4.381579e+04 -4.381579e+04 -4.381579e+04 2.007460e+04 -7.081625e+04 -3.921147e+04 -3.921147e+04 -2.853570e+04 -2.853570e+04 -2.853570e+04 -3.221341e+04 -1.524667e+04 -1.027002e+05 -1.027002e+05 -1.027002e+05 -9.173511e+04 -9.173511e+04 -8.472451e+04 2.067377e+04 -2.225579e+04 -5.097244e+04 -2.227461e+04 -2.227461e+04 -2.227657e+04 -2.196564e+04 -2.196564e+04 9.210234e+03 9.210234e+03 9.210234e+03 -3.425808e+04 -3.479354e+04 -7.370055e+04 -1.353405e+04 -9.514193e+03 -1.846338e+04 -6.893317e+04 2.100851e+04 2.100851e+04 2.185491e+04 4.814852e+03 4.814852e+03 -2.620211e+04 1.626389e+04 1.626389e+04 1.626389e+04 1.309370e+03 1.309370e+03 -4.924118e+04 -4.924118e+04 -4.462316e+04 -6.267120e+03 -6.267120e+03 7.213143e+03 -3.353919e+04 -2.388501e+04 1.110488e+04 2.375289e+04 4.193722e+03 -1.679859e+04 2.375289e+04 4.197724e+04 -2.434661e+05 -2.434661e+05 -1.389086e+05 -1.389086e+05 -2.118958e+05 -2.118958e+05 -1.475456e+05 -1.656697e+05 -2.134798e+05 -2.242376e+05 -3.057757e+05 3.531585e+04 3.531585e+04 -1.490082e+04 -1.109317e+05 -1.168322e+05 1.022436e+04 1.022436e+04 -2.391722e+05 -2.383748e+05 -2.595351e+05 -2.403717e+05 -2.403717e+05 -2.403717e+05 -2.063956e+05 -2.063956e+05 -2.063956e+05 -2.399659e+05 -1.978400e+05 -1.978400e+05 -1.977970e+05 -1.977970e+05 -2.357448e+05 -2.159763e+05 -2.311672e+05 -4.203729e+04 3.357320e+04 4.980868e+04 6.450067e+04 -2.189287e+02 -2.189287e+02 -6.288414e+04 -1.835250e+05 -2.237329e+05 -1.943454e+05 -1.873029e+05 -1.873029e+05 -1.587610e+05 -1.263582e+05 -9.143247e+04 -6.691446e+04 -6.691446e+04 -4.309967e+04 3.894583e+03 -9.227823e+03 1.765142e+04 1.765142e+04 1.765142e+04 -4.779552e+04 -2.321680e+04 -3.121472e+04 -3.121472e+04 -1.366793e+05 -4.809635e+04 -4.809635e+04 -9.315330e+04 -1.303134e+05 -7.670540e+04 -7.670540e+04 1.442165e+04 1.442165e+04 1.442165e+04 1.138769e+04 1.138769e+04 1.833778e+04 -8.399307e+04 -7.407431e+04 -6.167393e+04 -3.518117e+04 1.734927e+03 -1.431746e+05 -1.081805e+05 -1.065297e+05 -3.654095e+04 -8.268736e+04 -2.125954e+04 -5.374093e+04 -2.547744e+04 -2.547744e+04 -5.189919e+03 -3.664302e+04 -2.663371e+04 -6.503085e+03 -3.395146e+04 1.536273e+04 5.793909e+03 5.793909e+03 8.318547e+03 -9.369658e+03 2.854074e+03 -3.320859e+04 -3.320859e+04 -4.343744e+04 -4.496280e+04 -1.535078e+04 -1.853110e+04 -5.434359e+02 -1.345137e+04 8.205591e+03 -3.614302e+04 5.434539e+03 5.434539e+03 5.434539e+03 6.495932e+03 1.313465e+03 1.313465e+03 -1.280616e+04 -1.280616e+04 -2.674272e+03 -4.226114e+03 -4.226114e+03 1.431732e+04 -1.087355e+04 -2.119109e+03 -7.186553e+03 1.521236e+04 1.033927e+04 1.955876e+04 1.955876e+04 1.737212e+04 -4.078715e+04 8.223410e+03 8.223410e+03 1.070649e+04 1.070649e+04 -3.427760e+03 1.520552e+04 1.372632e+04 1.078655e+04 1.078655e+04 3.983887e+04 3.983887e+04 6.022166e+04 1.424199e+05 1.582951e+05 9.948601e+04 1.452609e+05 1.222760e+05 -2.065475e+05 -2.065475e+05 -2.065475e+05 -2.218565e+05 -2.316805e+05 -2.316805e+05 -2.316805e+05 -2.371667e+05 2.752193e+04 2.752193e+04 1.781574e+05 1.781574e+05 -6.025300e+04 -6.190567e+04 -6.190567e+04 -6.190567e+04 1.322254e+05 -2.477995e+05 -2.477995e+05 -2.477995e+05 -2.493890e+05 -2.447359e+05 -2.512814e+05 -6.810205e+04 -6.810205e+04 -3.646997e+05 3.877976e+03 3.877976e+03 3.877976e+03 -4.306808e+05 -4.306808e+05 -4.306808e+05 -3.761858e+05 -3.761858e+05 -5.216326e+05 -3.251489e+05 -2.742248e+05 -1.452163e+05 -1.452163e+05 -2.862923e+05 -4.693919e+05 -3.080666e+05 -3.080666e+05 -3.080666e+05 -2.614510e+05 -2.614510e+05 -5.216326e+05 -3.358581e+05 -5.296177e+05 -2.901178e+05 -5.881149e+05 -5.881149e+05 -4.698249e+05 -4.206397e+05 -3.522717e+05 -2.512889e+05 -2.435387e+05 -2.209760e+05 -2.209760e+05 -1.946509e+05 -1.781954e+05 -1.620016e+05 -1.620016e+05 -1.620016e+05 -1.460280e+05 -1.460280e+05 -1.099797e+05 -8.618706e+04 -8.618706e+04 -3.466439e+02 -7.012799e+04 -7.012799e+04 -7.012799e+04 -6.932949e+04 -6.932949e+04 -9.382790e+04 -9.382790e+04 -9.382790e+04 -1.818491e+05 -1.818491e+05 -6.584831e+04 1.357659e+04 1.357659e+04 1.357659e+04 -1.140846e+05 -1.140846e+05 -1.140846e+05 -1.088819e+05 -1.068204e+05 -1.774655e+04 -1.774655e+04 -1.774655e+04 -1.295260e+05 -1.295260e+05 -1.295260e+05 -1.866386e+05 -1.866386e+05 -1.866386e+05 -1.847125e+05 -1.847125e+05 -1.569068e+05 -1.569068e+05 -1.569068e+05 -9.390557e+04 -9.390557e+04 -1.679893e+05 -1.679893e+05 -1.679893e+05 -1.652149e+05 -1.652149e+05 -1.427194e+05 -1.427194e+05 -1.427194e+05 -2.348480e+04 -2.348480e+04 -2.348480e+04 -1.321319e+05 -1.321319e+05 -1.321319e+05 -1.418735e+05 -1.418735e+05 -2.776452e+04 -2.776452e+04 -2.776452e+04 -2.057396e+04 -2.057396e+04 5.159096e+04 4.796297e+03 4.796297e+03 4.796297e+03 8.969071e+03 -4.417822e+04 -4.417822e+04 -4.417822e+04 -3.758523e+04 -5.710147e+03 -5.710147e+03 -5.710147e+03 -1.002531e+05 -1.106484e+05 -8.616775e+04 -8.616775e+04 -8.616775e+04 -9.022632e+04 2.874442e+03 2.874442e+03 2.874442e+03 -1.571233e+05 -1.571233e+05 -1.571233e+05 -1.497723e+05 -1.497723e+05 -1.289259e+05 -1.289259e+05 -1.289259e+05 -1.310854e+05 -1.436277e+05 -1.436277e+05 -1.327810e+05 -1.327810e+05 -1.592925e+05 -1.549425e+05 -1.527120e+05 -9.608199e+04 -2.937553e+05 -1.593793e+05 -1.781954e+05 -1.788738e+05 -1.788738e+05 -1.354646e+04 -1.354646e+04 -1.354646e+04 -7.903423e+04 -7.903423e+04 2.319412e+04 2.319412e+04 2.319412e+04 -1.884917e+05 -1.884917e+05 -1.884917e+05 -5.715310e+04 -5.715310e+04 -1.183435e+05 -1.183435e+05 -8.421513e+04 -8.421513e+04 -8.421513e+04 -1.121475e+05 -1.121475e+05 -1.121475e+05 -1.254578e+05 -1.254578e+05 -1.254578e+05 -1.917314e+05 -2.829944e+04 -2.829944e+04 -1.026269e+05 -1.026269e+05 -8.872277e+04 -8.872277e+04 -1.458611e+05 -1.458611e+05 -1.512750e+05 -1.742806e+05 -1.742806e+05 -1.742806e+05 -1.730502e+05 -2.643171e+05 -2.463456e+05 -1.587649e+05 -5.298442e+04 -5.298442e+04 -5.298442e+04 -1.356190e+05 -1.356190e+05 -1.944273e+05 -1.944273e+05 -2.020429e+05 -2.020429e+05 -2.063751e+05 -2.063751e+05 -1.168347e+05 -1.168347e+05 -1.242148e+05 -1.713729e+05 -1.713729e+05 -6.536157e+04 -6.536157e+04 -6.536157e+04 -1.313158e+05 -1.240796e+05 -1.559873e+05 -7.658485e+04 -7.658485e+04 -7.658485e+04 -8.085460e+04 -8.085460e+04 -8.085460e+04 -1.005001e+05 -5.567265e+04 -5.567265e+04 -5.567265e+04 -4.669823e+04 -4.669823e+04 -4.669823e+04 -1.089774e+05 -1.089774e+05 -1.894741e+05 -1.816809e+05 -8.571202e+04 -8.571202e+04 -9.378506e+04 -9.378506e+04 -9.655429e+04 -9.237880e+04 -1.422507e+05 -1.062692e+05 -1.100778e+05 -1.100778e+05 -1.151310e+05 -7.673350e+04 -4.940640e+04 -4.940640e+04 -1.486929e+05 -1.527342e+05 -7.302261e+04 -7.302261e+04 -5.372977e+04 -9.687128e+04 -9.687128e+04 -1.026229e+05 -6.152364e+04 -6.152364e+04 -6.152364e+04 -9.251049e+04 -8.874350e+04 -6.561026e+04 -6.561026e+04 -6.561026e+04 -4.339171e+04 -4.339171e+04 -1.660241e+05 -1.055923e+05 -1.234828e+05 -1.234828e+05 -1.200261e+05 -2.816455e+04 -1.048980e+05 -1.048980e+05 -1.048980e+05 -1.023637e+05 -9.712313e+04 -1.936387e+04 -1.936387e+04 -1.936387e+04 -2.418728e+04 -4.070986e+04 -4.070986e+04 -4.044536e+04 -4.044536e+04 -7.824536e+04 -1.151641e+05 -1.048060e+05 -1.106009e+05 -7.218110e+04 -7.218110e+04 -7.218110e+04 -6.990006e+04 -6.990006e+04 -2.883020e+04 -2.883020e+04 -2.883020e+04 -9.728615e+04 -4.035169e+04 -3.661990e+04 -3.661990e+04 -6.470374e+04 -6.470374e+04 -8.032404e+04 -8.730861e+04 -5.137539e+04 -5.137539e+04 -5.137539e+04 -2.049784e+04 -2.049784e+04 -4.418696e+03 -4.418696e+03 -4.418696e+03 -4.834641e+04 -4.834641e+04 -5.455705e+04 -3.608305e+04 -3.608305e+04 1.039993e+04 1.039993e+04 5.134834e+03 5.134834e+03 -5.615915e+04 -6.558718e+04 -6.558718e+04 1.945127e+03 1.945127e+03 -8.140270e+04 -3.097347e+04 -3.483075e+04 -3.483075e+04 -5.240070e+04 -2.357010e+04 -2.357010e+04 -4.493065e+04 -4.493065e+04 -4.493065e+04 -3.914597e+04 -1.052460e+03 -1.052460e+03 -1.052460e+03 -1.306061e+04 -4.940933e+03 -9.368928e+04 -9.368928e+04 -9.368928e+04 -6.487776e+04 -3.202987e+04 -1.752598e+04 -2.925830e+04 -3.772982e+04 -5.292919e+04 -7.601833e+04 -1.240440e+04 -1.240440e+04 -2.009021e+03 2.133939e+04 2.133939e+04 2.133939e+04 -1.582419e+04 -1.540857e+04 -6.048597e+04 -1.103826e+04 -6.417143e+03 -7.229488e+03 -5.667109e+04 7.566742e+02 7.566742e+02 -1.292617e+04 -4.575568e+04 2.638255e+04 2.582791e+04 -3.572621e+04 -3.572621e+04 -2.573361e+04 8.169470e+03 2.638255e+04 1.267210e+04 1.267210e+04 1.267210e+04 1.417257e+04 -3.100215e+04 -7.937990e+03 2.935709e+04 1.987257e+04 1.987257e+04 1.987257e+04 1.459721e+04 1.459721e+04 2.935709e+04 -4.196465e+02 -4.196465e+02 2.649380e+04 -9.957234e+03 -9.957234e+03 -1.174408e+04 -1.197399e+02 3.204657e+04 3.204657e+04 3.204657e+04 8.951333e+03 1.410420e+04 1.410420e+04 2.713798e+04 -3.466439e+02 -3.466439e+02 3.485079e+04 2.884185e+04 3.056578e+04 2.193591e+04 2.193591e+04 1.893830e+04 3.816094e+04 3.786705e+04 3.786705e+04 4.303978e+04 3.485079e+04 3.485079e+04 4.076697e+04 -9.579946e+04 -1.692174e+05 -2.108862e+05 -2.642907e+05 -2.642907e+05 -1.144283e+05 -1.413218e+05 -1.413218e+05 -1.737288e+05 -1.764478e+05 -2.060759e+05 -2.060759e+05 -2.148831e+05 -1.792286e+05 -2.541503e+05 -2.444142e+05 -2.067850e+05 -6.880621e+04 -1.944820e+04 1.140994e+04 -1.229440e+05 -2.323978e+05 -2.386542e+05 -1.835664e+05 -4.135891e+04 -4.089077e+04 2.817256e+02 7.006811e+03 -1.243763e+05 5.705153e+03 -1.317345e+05 8.366870e+03 1.734874e+04 1.734874e+04 1.734874e+04 -9.191609e+03 -7.842436e+04 -7.842436e+04 -7.449683e+04 -1.283292e+05 -1.372958e+05 -1.128083e+05 -6.000362e+04 -1.081593e+05 -7.568262e+04 -4.420550e+04 -3.753843e+04 -3.753843e+04 -2.460736e+04 -1.218258e+04 -7.266532e+04 -4.538581e+04 -4.538581e+04 -6.976528e+04 -5.053942e+04 -7.732865e+03 -4.289324e+04 -1.098552e+04 -5.156282e+03 -3.599910e+04 -1.290512e+04 -1.599627e+04 -1.599627e+04 -3.240219e+04 -2.123710e+04 -2.401076e+04 8.254191e+03 1.123048e+04 1.123048e+04 -2.836317e+03 -4.000624e+04 2.374133e+03 2.374133e+03 -1.587267e+04 1.330384e+04 1.330384e+04 7.632742e+03 7.632742e+03 -6.036149e+03 3.465515e+02 -1.210778e+04 -1.401698e+04 1.817935e+04 1.817935e+04 1.817935e+04 -3.262997e+04 -1.257415e+03 4.084183e+03 1.726096e+04 -9.020781e+03 -3.286744e+04 -2.706138e+04 6.945952e+03 -2.101871e+04 4.564417e+02 4.564417e+02 -9.443343e+02 1.390740e+04 1.390740e+04 -6.152927e+03 -6.152927e+03 -8.582048e+03 -5.975569e+04 3.116621e+03 9.328524e+03 1.182324e+04 2.270857e+04 1.906406e+04 9.501383e+03 2.789205e+02 6.370200e+03 1.592887e+04 -1.217759e+04 -1.426103e+04 -1.660341e+04 -1.922331e+04 -2.206543e+04 -2.327452e+04 -2.471077e+04 -2.737215e+04 -3.046323e+04 -3.137608e+04 -2.953776e+04 -2.621208e+04 -2.418398e+04 -2.947315e+04 -3.021064e+04 -3.456552e+04 -3.251690e+04 -2.533553e+04 -2.366869e+04 -2.760186e+04 -2.782749e+04 -2.046090e+04 -2.213281e+04 -2.718557e+04 -2.138599e+04 -1.268566e+04 -8.156179e+03 -1.664959e+04 -2.025894e+04 -3.111979e+03 -1.760364e+03 -8.775928e+02 -1.887324e+03 -2.160766e+03 -7.399284e+03 -1.105639e+04 -2.025913e+03 -7.017510e+03 -4.709403e+03 2.397553e+04 7.673350e+02 -6.713239e+03 1.142724e+03 1.426359e+03 1.526916e+05 9.066202e+04 -1.605690e+05 6.301057e+03 1.178608e+04 -2.981991e+04 -1.345788e+04 -2.619735e+04 -1.424537e+04 -1.656915e+03 8.195105e+02 -3.562547e+03 5.159613e+02 6.685492e+02 7.659790e+03 -2.866126e+04 1.305730e+05 -1.278126e+04 -1.736001e+04 -4.295646e+04 -2.359660e+04 -3.809648e+03 -1.381345e+04 -6.744317e+03 -5.269351e+03 3.936707e+04 1.729004e+03 -1.041083e+04 1.003385e+02 -7.779706e+03 1.501095e+03 1.330624e+03 1.218266e+05 -1.393078e+05 -4.693919e+05 -3.494573e+05 -2.663751e+05 -2.663751e+05 -2.642907e+05 -2.315157e+05 -2.148831e+05 -2.108862e+05 -2.108862e+05 -2.060759e+05 -1.926343e+05 -1.858199e+05 -1.818491e+05 -1.810726e+05 -1.763944e+05 -1.741425e+05 -1.692174e+05 -1.592925e+05 -1.548300e+05 -1.507345e+05 -1.435166e+05 -1.404672e+05 -1.372958e+05 -1.316937e+05 -1.316937e+05 -1.270632e+05 -1.200737e+05 -1.183435e+05 -1.144283e+05 -1.118049e+05 -1.081593e+05 -1.026269e+05 -9.729177e+04 -9.579946e+04 -9.348322e+04 -8.872277e+04 -8.678273e+04 -7.996736e+04 -7.842436e+04 -7.568262e+04 -7.266532e+04 -7.111483e+04 -6.518819e+04 -6.417445e+04 -6.000362e+04 -5.715310e+04 -5.511584e+04 -5.053942e+04 -4.954158e+04 -4.420550e+04 -4.420550e+04 -4.152896e+04 -3.753843e+04 -3.240219e+04 -3.240219e+04 -2.829944e+04 -2.460736e+04 -2.460736e+04 -2.123710e+04 -1.801525e+04 -1.599627e+04 -1.218258e+04 -1.218258e+04 -7.732865e+03 -7.732865e+03 -5.156282e+03 -2.836317e+03 3.465515e+02 2.374133e+03 4.084183e+03 8.254191e+03 8.254191e+03 1.123048e+04 1.329522e+04 1.526510e+04 1.830350e+04 1.830350e+04 -3.287447e+03 -3.287447e+03 -3.287447e+03 5.061495e+01 6.064907e+04 6.064907e+04 6.064907e+04 2.684290e+04 2.684290e+04 2.684290e+04 3.605441e+04 -3.610215e+04 -3.610215e+04 -3.610215e+04 -4.384117e+04 -8.472383e+04 -8.472383e+04 -8.472383e+04 -9.396757e+04 -2.233529e+05 -2.233529e+05 -2.233529e+05 -2.187344e+05 -2.095899e+05 -1.733000e+05 -1.733000e+05 -1.733000e+05 -1.697947e+05 -2.035816e+01 -2.035816e+01 -2.035816e+01 -6.970205e+04 -6.970205e+04 -6.970205e+04 -6.588360e+04 -6.738305e+04 -2.737674e+05 -2.737674e+05 -2.737674e+05 -3.374530e+05 -2.556871e+04 -2.556871e+04 -2.556871e+04 -1.795528e+04 -1.795528e+04 -8.070199e+04 -8.070199e+04 -8.070199e+04 -8.680783e+04 -1.179910e+05 -6.827971e+04 -6.827971e+04 -6.827971e+04 -1.224916e+05 -1.963383e+05 -1.268051e+05 -1.268051e+05 -1.268051e+05 -1.363242e+05 -2.052459e+05 -2.052459e+05 -2.052459e+05 -1.662044e+04 -1.662044e+04 -4.546628e+04 -4.546628e+04 -1.161570e+05 -1.161570e+05 -1.161570e+05 -3.220346e+04 -1.742923e+05 -1.742923e+05 -1.742923e+05 -4.422472e+04 -3.798177e+05 -3.798177e+05 -6.030347e+05 -6.030347e+05 -2.920670e+05 -2.920670e+05 -2.920670e+05 -2.544505e+05 -2.544505e+05 -5.504743e+05 -5.504743e+05 -5.504743e+05 -4.833426e+05 -4.833426e+05 -1.399243e+04 -2.365037e+05 -2.365037e+05 -2.365037e+05 -2.346143e+05 -5.449667e+04 -5.449667e+04 -5.449667e+04 -5.779447e+04 -5.779447e+04 -9.936897e+04 -9.936897e+04 -9.936897e+04 -8.812653e+04 -8.812653e+04 -1.384020e+05 -1.384020e+05 -1.384020e+05 -1.389361e+05 -1.389361e+05 -1.662185e+05 -1.662185e+05 -1.662185e+05 -1.564969e+05 -1.564969e+05 -1.768517e+04 -1.768517e+04 -1.768517e+04 -1.607080e+04 -2.177592e+04 -2.177592e+04 -2.177592e+04 -3.009397e+04 -1.104928e+05 -1.104928e+05 -1.104928e+05 -1.196407e+05 -1.196407e+05 3.194001e+04 3.194001e+04 3.194001e+04 -2.932017e+04 -2.932017e+04 -2.932017e+04 -2.578731e+04 -2.578731e+04 2.212832e+04 2.212832e+04 2.212832e+04 3.454757e+04 3.454757e+04 -4.795243e+04 -4.795243e+04 -4.795243e+04 -3.678055e+04 -1.112295e+05 -1.112295e+05 -1.846916e+05 -1.846916e+05 -1.846916e+05 -5.380824e+04 -5.380824e+04 -4.219421e+04 -4.219421e+04 -3.438423e+04 -3.438423e+04 -3.438423e+04 -3.479294e+04 -3.413143e+05 -3.413143e+05 -3.413143e+05 -2.912878e+05 -3.298746e+04 -3.298746e+04 -3.119803e+05 -3.119803e+05 -3.119803e+05 -9.520713e+04 -9.520713e+04 -9.520713e+04 -1.079233e+05 -1.079233e+05 -5.627687e+05 -5.627687e+05 -5.627687e+05 -5.851181e+05 -5.851181e+05 -1.784259e+05 -1.784259e+05 -1.299212e+05 -1.778055e+05 -1.778055e+05 -1.778055e+05 -4.020517e+04 -4.020517e+04 -2.025894e+04 -1.261852e+05 -1.261852e+05 -1.261852e+05 -7.730399e+04 -8.390236e+04 -4.150754e+04 -1.011013e+05 -1.011013e+05 -1.011013e+05 -1.794581e+05 -1.794581e+05 -1.794581e+05 -1.507058e+05 -1.507058e+05 -1.507058e+05 -3.785472e+05 -3.785472e+05 -3.785472e+05 -2.928030e+05 -2.928030e+05 -2.067980e+05 -2.067980e+05 -2.067980e+05 -2.12