<?xml version="1.0"?>
 <VTKFile type="UnstructuredGrid" version="1.0" byte_order="LittleEndian" header_type="UInt64">
  <UnstructuredGrid>
    <FieldData>
     <DataArray type="Float64" Name="TimeValue" NumberOfTuples="1" format="ascii">
0.00032
     </DataArray>
    </FieldData>
   <Piece NumberOfPoints="3662" NumberOfCells="3444">
    <PointData>
     <DataArray type="Float64" Name="pointP" format="ascii">
9.425385e+05 9.426560e+05 9.438703e+05 9.428345e+05 9.424864e+05 9.433809e+05 9.430267e+05 9.405091e+05 9.386327e+05 9.361118e+05 9.319934e+05 9.271943e+05 9.219884e+05 9.144440e+05 9.113992e+05 9.048563e+05 8.975752e+05 8.934183e+05 8.907924e+05 8.840282e+05 8.801460e+05 8.733067e+05 8.656461e+05 8.619206e+05 8.530180e+05 8.535441e+05 8.399645e+05 8.374972e+05 8.300548e+05 8.266709e+05 8.247743e+05 8.190469e+05 8.150490e+05 8.090875e+05 8.023693e+05 7.918204e+05 7.873960e+05 7.778312e+05 7.647066e+05 7.585652e+05 7.521673e+05 7.436805e+05 7.337816e+05 7.231475e+05 7.170233e+05 7.098012e+05 6.974676e+05 6.846494e+05 6.767147e+05 6.666252e+05 6.539029e+05 6.436124e+05 6.314293e+05 6.175379e+05 6.061398e+05 5.951078e+05 5.824453e+05 5.730737e+05 5.608894e+05 5.518694e+05 5.411550e+05 5.323963e+05 5.197132e+05 5.074917e+05 4.921301e+05 4.847262e+05 4.711883e+05 4.616441e+05 4.514446e+05 4.398451e+05 4.281922e+05 4.183131e+05 4.078289e+05 3.980208e+05 3.870625e+05 3.772014e+05 3.662367e+05 3.542836e+05 3.421951e+05 3.311027e+05 3.215461e+05 3.113028e+05 2.996083e+05 2.903981e+05 2.806608e+05 2.706752e+05 2.600671e+05 2.500481e+05 2.402476e+05 2.306043e+05 2.203011e+05 2.098409e+05 2.011687e+05 1.901938e+05 1.813177e+05 1.723598e+05 1.618390e+05 1.531965e+05 1.448973e+05 1.364561e+05 1.278508e+05 1.195039e+05 1.117315e+05 1.029332e+05 9.589547e+04 8.700656e+04 7.966268e+04 7.290529e+04 6.582302e+04 5.994906e+04 5.429080e+04 4.730649e+04 4.149997e+04 3.587190e+04 2.998303e+04 2.601930e+04 1.984072e+04 1.440831e+04 1.042551e+04 6.346027e+03 1.868008e+03 -3.812596e+03 -8.172838e+03 -8.172838e+03 1.217336e+05 1.460662e+05 1.575436e+05 1.587783e+05 1.618318e+05 1.665123e+05 1.702981e+05 1.702981e+05 1.708511e+05 1.726145e+05 1.740816e+05 1.740816e+05 1.786653e+05 1.786653e+05 1.842515e+05 1.871165e+05 1.882400e+05 1.921932e+05 1.964049e+05 2.071003e+05 2.071003e+05 2.193756e+05 2.193756e+05 2.263885e+05 2.414060e+05 2.449791e+05 2.545473e+05 2.593401e+05 2.730895e+05 2.828338e+05 2.921995e+05 3.075268e+05 3.121714e+05 3.288919e+05 3.461695e+05 3.599514e+05 3.725204e+05 3.725204e+05 3.852199e+05 4.116344e+05 4.116344e+05 4.419479e+05 4.528105e+05 4.528105e+05 4.787898e+05 5.084272e+05 5.084272e+05 5.415962e+05 5.640514e+05 6.049274e+05 6.049274e+05 6.365201e+05 7.056942e+05 7.529387e+05 8.419207e+05 8.774175e+05 1.198428e+05 2.163681e+05 2.163681e+05 2.163681e+05 2.219685e+05 1.850658e+05 1.850658e+05 1.850658e+05 1.925220e+05 1.925220e+05 2.311384e+05 2.311384e+05 2.311384e+05 2.331964e+05 2.294996e+05 1.063144e+05 1.969949e+05 1.969949e+05 1.911558e+05 2.183652e+05 2.183652e+05 2.183652e+05 2.140009e+05 2.102696e+05 4.420522e+05 4.420522e+05 4.420522e+05 4.284686e+05 1.427703e+05 1.427703e+05 1.427703e+05 1.391480e+05 1.352927e+05 1.352927e+05 2.100684e+05 2.100684e+05 1.850028e+05 1.810973e+05 1.198428e+05 1.198428e+05 1.620559e+05 1.620559e+05 1.620559e+05 1.595053e+05 1.538993e+05 1.538993e+05 1.579962e+05 1.977956e+05 1.977956e+05 1.977956e+05 1.983814e+05 1.913966e+05 2.075583e+05 2.069578e+05 1.571070e+05 1.571070e+05 1.571070e+05 1.484809e+05 7.907753e+04 5.787571e+04 4.050213e+04 5.787571e+04 3.259990e+05 3.259990e+05 3.259990e+05 3.851349e+05 3.851349e+05 3.851349e+05 3.703333e+05 1.375483e+04 5.909309e+03 1.375483e+04 1.375483e+04 3.188146e+05 3.188146e+05 3.188146e+05 3.207112e+05 4.987958e+05 4.987958e+05 4.987958e+05 4.844885e+05 5.914416e+05 5.914416e+05 5.914416e+05 5.597257e+05 5.597257e+05 4.629953e+04 4.629953e+04 4.629953e+04 4.261390e+04 1.004790e+05 1.004790e+05 1.004790e+05 9.211140e+04 9.211140e+04 6.776885e+05 6.776885e+05 6.776885e+05 6.953646e+05 2.475219e+05 2.475219e+05 2.475219e+05 2.449952e+05 2.449952e+05 -1.383489e+04 -1.017470e+04 6.854991e+05 6.854991e+05 6.854991e+05 6.646074e+05 7.461626e+05 7.461626e+05 7.461626e+05 7.778129e+05 7.778129e+05 3.355203e+05 3.355203e+05 3.355203e+05 3.272106e+05 7.316579e+05 7.316579e+05 7.316579e+05 7.061122e+05 3.587190e+04 4.864690e+05 4.864690e+05 4.864690e+05 3.826341e+05 3.826341e+05 3.826341e+05 3.825367e+05 2.856978e+05 2.856978e+05 2.856978e+05 2.885208e+05 1.531965e+05 1.169961e+05 1.169961e+05 1.169961e+05 1.136457e+05 2.229066e+05 2.229066e+05 2.229066e+05 2.199243e+05 2.199243e+05 -1.017470e+04 -1.017470e+04 -1.383489e+04 5.686914e+05 5.686914e+05 5.686914e+05 6.122298e+05 6.122298e+05 2.420653e+05 2.475019e+05 2.475019e+05 4.599806e+05 4.599806e+05 4.599806e+05 4.907855e+05 4.907855e+05 4.215118e+05 4.215118e+05 4.215118e+05 4.303551e+05 4.905850e+04 3.985476e+04 4.905850e+04 4.905850e+04 5.417625e+04 1.909580e+05 1.909580e+05 1.909580e+05 1.989294e+05 2.097895e+05 2.214327e+05 2.214327e+05 1.378213e+05 1.378213e+05 1.221344e+05 1.221344e+05 2.369458e+05 2.369458e+05 2.369458e+05 2.525248e+05 2.525248e+05 1.287739e+05 1.287739e+05 1.287739e+05 1.283022e+05 1.217703e+05 1.745029e+05 1.584484e+05 3.075870e+05 3.075870e+05 3.075870e+05 3.019793e+05 3.587979e+05 3.587979e+05 3.587979e+05 3.507719e+05 2.492715e+05 2.492715e+05 2.492715e+05 4.061052e+05 4.061052e+05 4.061052e+05 1.409859e+05 1.409859e+05 1.409859e+05 4.669085e+05 4.669085e+05 4.669085e+05 5.054726e+04 5.054726e+04 5.054726e+04 4.959756e+04 4.296297e+04 1.486483e+05 1.486483e+05 1.486483e+05 6.332254e+04 6.332254e+04 6.463553e+04 2.873005e+05 2.873005e+05 2.873005e+05 2.962448e+05 1.758354e+05 1.758354e+05 1.758354e+05 1.749390e+05 1.333080e+05 1.333080e+05 6.007336e+05 6.007336e+05 6.007336e+05 5.779691e+05 1.309613e+04 1.309613e+04 1.309613e+04 1.384375e+04 7.977776e+04 7.977776e+04 7.977776e+04 8.150878e+04 5.610407e+05 5.610407e+05 5.610407e+05 3.586764e+05 3.586764e+05 3.586764e+05 3.585182e+05 1.968138e+05 1.968138e+05 1.968138e+05 1.972864e+05 1.954986e+05 1.954986e+05 1.954986e+05 1.905734e+05 2.658977e+05 2.658977e+05 2.658977e+05 2.708967e+05 7.872013e+05 7.872013e+05 7.872013e+05 7.910153e+05 7.910153e+05 7.910153e+05 7.767989e+05 7.734465e+05 7.734465e+05 7.734465e+05 7.522616e+05 7.333806e+05 7.333806e+05 7.118990e+05 4.113046e+05 4.113046e+05 4.025108e+05 7.747024e+04 7.747024e+04 8.019931e+04 2.444282e+05 2.444282e+05 2.444282e+05 2.463379e+05 3.213153e+05 3.213153e+05 3.213153e+05 7.971735e+05 7.971735e+05 7.936872e+05 3.639026e+05 3.639026e+05 3.645019e+05 2.543921e+05 7.478040e+05 7.467669e+05 1.060975e+05 1.060975e+05 1.003923e+05 8.380736e+05 8.380736e+05 8.380736e+05 8.714798e+05 3.188161e+05 3.188161e+05 6.677589e+05 6.677589e+05 6.677589e+05 8.320130e+05 8.320130e+05 8.320130e+05 8.253987e+05 8.253987e+05 7.554543e+05 7.554543e+05 7.554543e+05 7.912403e+05 7.351467e+05 7.351467e+05 7.351467e+05 7.009249e+05 7.009249e+05 1.397212e+05 1.397212e+05 1.397212e+05 1.333630e+05 1.333630e+05 5.990958e+05 5.990958e+05 6.281657e+05 6.281657e+05 7.345027e+05 7.345027e+05 7.345027e+05 6.204070e+05 6.204070e+05 6.204070e+05 6.619715e+05 1.111368e+05 1.111368e+05 1.111368e+05 1.101748e+05 1.101748e+05 1.772275e+03 1.772275e+03 1.772275e+03 9.781746e+03 9.781746e+03 2.089109e+05 2.089109e+05 2.089109e+05 2.244960e+05 2.244960e+05 3.571257e+05 3.571257e+05 3.571257e+05 3.616292e+05 3.616292e+05 4.217039e+05 4.217039e+05 4.217039e+05 4.512648e+05 4.055262e+05 4.055262e+05 4.627257e+05 4.627257e+05 4.627257e+05 4.438540e+05 4.438540e+05 7.991167e+04 7.991167e+04 7.991167e+04 8.568911e+04 8.568911e+04 1.700341e+05 1.700341e+05 1.700341e+05 1.880070e+05 1.880070e+05 1.735934e+05 1.735934e+05 1.564518e+05 1.564518e+05 2.710301e+05 2.710301e+05 2.851692e+05 2.851692e+05 1.760195e+05 1.580674e+05 1.580674e+05 2.535345e+05 2.535345e+05 2.535345e+05 2.569517e+05 2.569517e+05 2.271208e+05 2.271208e+05 1.401189e+05 1.401189e+05 1.401189e+05 1.432905e+05 2.063110e+05 9.491091e+04 8.852054e+04 1.678457e+05 1.678457e+05 1.678457e+05 1.700007e+05 1.700007e+05 9.042642e+04 9.042642e+04 8.222779e+04 7.883050e+04 8.290727e+04 4.501382e+05 4.501382e+05 4.501382e+05 4.368675e+05 4.891972e+05 4.891972e+05 4.770704e+05 2.117983e+05 2.117983e+05 2.117983e+05 1.965454e+04 1.965454e+04 1.965454e+04 1.659104e+04 1.581407e+04 7.568275e+05 7.568275e+05 7.568275e+05 3.000312e+05 8.370728e+04 3.009880e+04 3.009880e+04 7.487490e+05 7.487490e+05 4.711883e+05 4.519732e+05 4.519732e+05 4.519732e+05 5.292404e+05 5.292404e+05 5.292404e+05 5.323834e+05 9.438703e+05 8.985819e+05 8.985819e+05 8.802641e+05 8.802641e+05 8.802641e+05 9.017966e+05 1.464634e+05 1.464634e+05 1.417721e+05 1.723598e+05 9.173542e+05 9.173542e+05 7.980590e+05 7.980590e+05 2.038044e+05 2.038044e+05 5.915552e+04 5.915552e+04 5.915552e+04 8.820710e+05 8.820710e+05 8.929162e+05 -1.026112e+04 -1.026112e+04 -6.400265e+03 7.720533e+05 8.646039e+05 8.607283e+05 8.607283e+05 8.569395e+05 4.288765e+05 4.288765e+05 4.288765e+05 4.440802e+05 6.436124e+05 6.338734e+05 9.428345e+05 8.801864e+05 7.036773e+05 7.036773e+05 6.345132e+05 6.345132e+05 6.345132e+05 6.525011e+05 1.913355e+05 1.913355e+05 1.819038e+05 1.819038e+05 3.789461e+05 8.424942e+05 8.424942e+05 8.129166e+05 4.995025e+05 4.995025e+05 4.995025e+05 4.730649e+04 9.405091e+05 8.603235e+05 5.660306e+05 5.660306e+05 5.660306e+05 5.565052e+05 4.917542e+04 4.917542e+04 4.840828e+04 5.433934e+05 5.433934e+05 5.604675e+05 9.735492e+04 9.735492e+04 2.272595e+05 2.272595e+05 9.092024e+05 7.647066e+05 7.413188e+05 5.356629e+05 8.575131e+05 8.575131e+05 6.513577e+05 7.070707e+04 6.730010e+04 6.730010e+04 1.641440e+05 1.641440e+05 1.577340e+05 1.577340e+05 8.154399e+05 8.154399e+05 4.756417e+05 8.589045e+05 4.213557e+05 4.213557e+05 4.179870e+05 5.807718e+05 5.807718e+05 5.807718e+05 8.862852e+05 8.862852e+05 2.823349e+05 3.043798e+04 3.043798e+04 6.139711e+05 5.964795e+05 6.968035e+05 3.649324e+05 -3.812596e+03 1.868008e+03 8.268537e+05 5.078508e+05 7.156439e+03 7.156439e+03 7.156439e+03 1.302821e+03 7.770374e+05 -7.175236e+03 7.503989e+04 7.503989e+04 6.846494e+05 6.148038e+05 1.244889e+05 1.244889e+05 8.140376e+05 8.140376e+05 2.281583e+04 2.281583e+04 1.657504e+05 4.632920e+05 4.632920e+05 1.028466e+05 1.648443e+05 2.747633e+05 2.796776e+05 4.593892e+05 4.593892e+05 4.262230e+05 4.262230e+05 8.792170e+04 2.698077e+05 8.641634e+05 5.163909e+03 2.641775e+05 6.283830e+05 7.303832e+05 1.285702e+03 1.160097e+05 1.236200e+05 1.565985e+05 6.031732e+05 5.839726e+05 8.665820e+05 8.665820e+05 4.576661e+05 4.282414e+05 7.248414e+05 1.382239e+05 7.140962e+05 7.140962e+05 6.405536e+05 6.405536e+05 6.405536e+05 2.337224e+05 4.298298e+05 5.985559e+04 7.367667e+05 7.388840e+05 7.227685e+05 7.227685e+05 7.227685e+05 5.430140e+05 5.430140e+05 5.430140e+05 5.683545e+05 8.616965e+05 4.194528e+05 4.101962e+05 2.467968e+05 2.467968e+05 2.467968e+05 6.082594e+05 6.082594e+05 6.082594e+05 6.451609e+05 5.149807e+05 5.149807e+05 5.237859e+05 3.816783e+05 3.661679e+05 8.850495e+04 9.213293e+04 7.266611e+04 7.266611e+04 6.982614e+04 3.015997e+04 3.015997e+04 2.816633e+04 2.816633e+04 1.441975e+05 8.287280e+05 2.131702e+05 8.397234e+05 8.074421e+05 8.102746e+05 8.102746e+05 7.789666e+05 7.789666e+05 6.807043e+05 6.901171e+05 3.396918e+05 7.448061e+05 7.448061e+05 6.204314e+05 6.204314e+05 7.148289e+05 2.949838e+05 2.949838e+05 2.949838e+05 6.978865e+05 2.953375e+05 4.092516e+04 4.092516e+04 4.092516e+04 4.392583e+04 4.392583e+04 5.412806e+05 5.354360e+05 7.840236e+05 7.840236e+05 8.246360e+05 1.687085e+04 2.061278e+04 4.976581e+05 4.976581e+05 4.311297e+05 5.573611e+05 7.486656e+05 5.719542e+04 5.719542e+04 5.719542e+04 6.478017e+04 8.079292e+05 8.079292e+05 7.842992e+05 8.040650e+05 7.509764e+05 7.509764e+05 1.664235e+05 1.664235e+05 1.664235e+05 1.868962e+05 7.914164e+04 1.862151e+05 1.775702e+05 1.775702e+05 3.949236e+05 3.259065e+05 3.259065e+05 3.386591e+05 6.224113e+05 5.951023e+05 5.951023e+05 7.338824e+05 7.338824e+05 -9.955417e+03 3.788016e+05 3.788016e+05 2.342013e+05 2.191771e+05 2.191771e+05 3.109779e+05 3.082530e+05 4.052640e+05 6.964045e+05 7.553777e+04 7.553777e+04 7.553777e+04 1.259062e+05 7.315980e+05 7.127825e+05 2.783137e+05 2.783137e+05 6.680015e+05 6.680015e+05 6.680015e+05 4.915762e+05 4.915762e+05 4.915762e+05 4.170827e+05 1.523100e+05 4.789648e+05 4.789648e+05 4.789648e+05 2.480679e+04 7.794574e+05 1.298654e+05 1.419260e+05 3.869005e+05 3.721626e+05 3.721626e+05 4.697691e+05 3.471412e+05 7.341188e+05 7.248687e+05 7.248687e+05 3.234083e+05 6.804967e+05 6.804967e+05 6.926092e+05 6.829399e+05 6.887225e+05 6.583285e+05 6.583285e+05 6.752099e+05 4.525071e+05 4.525071e+05 4.526862e+05 4.526862e+05 6.452660e+05 6.452660e+05 6.109384e+05 6.109384e+05 2.961084e+05 7.382943e+05 6.916798e+05 3.503893e+05 3.503893e+05 5.894747e+05 1.710093e+03 6.156497e+05 6.226097e+05 5.641808e+05 5.641808e+05 2.361518e+05 8.375137e+04 5.113268e+05 6.499932e+05 6.494588e+05 6.494588e+05 7.137157e+04 4.946104e+05 4.946104e+05 5.249461e+05 2.780031e+05 2.780031e+05 2.780031e+05 1.918651e+05 4.247843e+05 4.958208e+04 4.958208e+04 5.116181e+04 5.716425e+05 5.716425e+05 4.786216e+05 6.594984e+05 6.594984e+05 6.594984e+05 3.792265e+05 6.889564e+05 4.090624e+05 5.060694e+05 5.357995e+05 3.317094e+05 3.176352e+05 3.176352e+05 1.624885e+05 1.559917e+05 1.559917e+05 3.283414e+04 2.745504e+04 1.462390e+05 1.385147e+05 1.385147e+05 6.430026e+05 6.430026e+05 6.430026e+05 6.336045e+05 5.996055e+05 5.996055e+05 2.024579e+05 6.892463e+05 5.305249e+05 3.457296e+05 3.457296e+05 -7.266043e+03 -7.266043e+03 1.045141e+05 6.987106e+05 6.987106e+05 2.246305e+05 5.776448e+05 5.479307e+05 5.479307e+05 3.855888e+05 3.855888e+05 5.180651e+05 5.180651e+05 3.272766e+05 3.026303e+05 1.199176e+05 4.921597e+05 6.495700e+05 6.495700e+05 6.018233e+05 4.486464e+05 4.486464e+05 4.190354e+05 4.190354e+05 -7.611054e+03 2.986941e+05 1.669472e+05 1.753988e+05 3.495221e+05 3.385382e+05 1.022786e+05 4.089976e+05 4.089976e+05 4.089976e+05 6.161963e+05 6.161963e+05 6.470686e+05 1.169528e+05 1.169528e+05 1.169528e+05 7.142880e+04 7.142880e+04 5.250795e+05 5.250795e+05 5.450158e+05 6.278636e+05 6.096910e+05 2.693044e+05 5.638432e+05 5.638432e+05 5.489046e+05 3.260825e+05 5.851677e+05 5.851677e+05 3.969948e+05 1.546326e+05 1.546326e+05 1.546326e+05 1.406369e+05 4.623797e+05 8.478050e+03 1.967562e+04 3.348150e+04 5.428012e+04 4.458627e+05 4.473780e+05 1.939991e+05 6.516026e+05 5.652574e+05 5.652574e+05 5.652574e+05 5.760016e+05 1.813758e+05 6.023254e+05 5.341019e+05 5.341832e+05 3.826920e+05 3.826920e+05 3.826920e+05 2.529984e+05 2.529984e+05 2.529984e+05 2.835420e+05 2.835420e+05 5.415673e+05 5.389291e+05 5.389291e+05 5.389291e+05 2.771084e+05 4.761773e+05 4.761773e+05 4.761773e+05 3.127433e+05 3.971264e+05 3.971264e+05 3.971264e+05 9.825118e+04 9.825118e+04 9.825118e+04 4.745981e+04 1.667178e+05 5.192323e+05 5.192323e+05 4.795629e+05 5.886824e+05 2.210886e+05 2.013233e+05 2.013233e+05 2.013233e+05 3.388432e+05 5.066262e+05 5.014098e+05 1.109737e+05 1.013919e+05 3.086449e+05 1.747952e+04 5.137471e+05 5.137471e+05 5.490518e+05 5.598290e+05 4.413248e+05 2.861550e+05 5.219588e+05 1.948573e+05 1.948573e+05 2.692029e+05 3.202607e+05 2.438200e+05 2.438200e+05 2.385471e+05 2.211920e+05 8.001732e+04 8.001732e+04 3.741651e+05 3.741651e+05 3.854068e+05 4.209699e+05 5.023956e+05 4.906350e+05 2.876200e+05 3.004182e+05 4.342770e+05 5.637599e+05 5.384692e+05 9.345847e+04 3.777986e+04 3.777986e+04 3.777986e+04 4.960577e+05 4.960577e+05 3.503765e+05 3.503765e+05 3.386615e+05 4.718761e+05 4.202705e+05 3.992889e+05 3.992889e+05 1.519322e+05 1.519322e+05 1.644987e+05 1.262101e+05 1.262101e+05 2.559228e+05 1.189294e+05 1.066222e+05 2.048690e+05 1.769601e+05 2.137179e+05 2.307552e+05 4.065870e+05 3.468652e+05 3.468652e+05 3.468652e+05 3.760060e+05 4.723906e+05 5.104991e+05 2.800356e+05 4.587895e+05 3.375347e+05 3.375347e+05 3.556372e+05 3.080824e+05 3.080824e+05 2.951086e+05 2.951086e+05 2.286018e+05 2.352366e+05 4.345684e+04 4.978507e+04 2.841187e+05 1.419447e+05 3.250618e+05 3.250618e+05 2.508282e+05 2.508282e+05 2.508282e+05 2.370631e+05 4.505045e+05 4.326963e+05 2.627565e+05 9.710457e+04 2.050067e+05 3.695874e+05 2.747242e+05 2.747242e+05 3.252988e+05 3.252988e+05 1.223755e+05 1.223755e+05 3.038416e+05 4.487136e+05 4.068591e+05 4.068591e+05 3.876300e+05 6.068661e+04 3.217491e+05 4.221641e+05 2.104781e+05 2.104781e+05 1.984632e+05 2.516950e+05 2.625592e+05 3.859024e+05 3.859024e+05 2.122848e+05 2.122848e+05 1.436731e+05 1.259206e+05 1.259206e+05 2.333491e+05 3.619616e+05 1.023283e+05 3.045150e+05 3.453472e+05 3.756204e+05 6.409352e+04 1.380892e+05 3.136865e+05 3.136865e+05 3.414118e+05 7.478638e+04 5.417625e+04 1.106240e+05 1.106240e+05 1.106240e+05 1.274935e+05 2.330477e+05 2.330477e+05 3.336621e+05 3.336621e+05 3.122166e+05 3.122166e+05 2.509186e+05 8.694589e+04 7.767329e+04 2.717082e+05 2.717082e+05 2.717082e+05 2.681192e+05 1.878848e+05 1.878848e+05 2.716568e+05 2.716568e+05 2.346411e+05 2.346411e+05 2.291200e+05 5.288805e+04 5.288805e+04 5.288805e+04 4.100901e+04 2.179834e+05 2.003207e+05 2.003207e+05 9.668629e+04 1.209986e+05 5.787571e+04 6.814430e+04 8.354782e+04 8.354782e+04 2.048574e+05 2.854949e+05 1.483775e+05 1.515936e+05 2.022030e+05 1.353479e+05 1.353479e+05 2.394566e+05 2.352366e+05 2.916912e+05 1.045866e+05 1.045866e+05 8.925044e+04 2.662845e+05 2.662845e+05 2.426698e+05 1.019139e+05 8.959633e+04 8.959633e+04 8.959633e+04 7.528081e+04 2.273191e+05 8.098776e+04 1.159507e+05 1.793596e+05 8.098776e+04 1.276753e+05 9.488548e+04 9.488548e+04 1.662480e+05 1.600289e+05 1.216896e+05 1.157541e+05 1.615395e+05 1.615395e+05 1.615395e+05 1.165294e+05 1.712139e+05 1.712139e+05 1.712139e+05 1.521330e+05 1.521330e+05 1.397895e+05 1.236413e+05 1.598381e+05 1.328219e+05 1.283515e+05 1.504266e+05 1.372087e+05 1.445381e+05 1.585875e+05 1.585875e+05 1.214677e+05 1.214677e+05 1.298160e+05 1.607445e+05 1.607445e+05 1.607445e+05 1.645259e+05 1.645259e+05 1.494814e+05 1.494814e+05 1.494814e+05 3.467623e+05 3.570550e+05 3.570550e+05 3.570550e+05 1.063144e+05 1.063144e+05 3.621319e+05 3.621319e+05 3.621319e+05 3.730462e+05 3.730462e+05 1.265215e+05 1.144825e+05 3.410806e+05 3.410806e+05 3.315375e+05 1.053681e+05 3.806835e+05 3.714545e+05 3.742893e+05 9.491091e+04 1.104478e+05 1.137683e+05 1.716348e+05 1.716348e+05 1.741032e+05 6.105482e+05 2.543204e+05 2.543204e+05 2.543204e+05 2.350764e+05 3.091756e+05 3.091756e+05 3.091756e+05 3.156171e+05 3.089481e+05 3.089481e+05 4.705849e+05 2.699259e+05 2.699259e+05 2.699259e+05 2.680830e+05 1.923352e+05 5.640517e+05 5.640517e+05 5.640517e+05 3.059412e+05 4.462319e+05 4.462319e+05 4.031991e+05 4.031991e+05 4.031991e+05 2.890974e+05 2.890974e+05 2.890974e+05 3.214353e+05 2.916497e+05 2.916497e+05 2.962123e+05 3.409538e+05 2.513758e+05 2.953988e+05 2.830216e+05 2.784103e+05 2.431049e+05 2.292535e+05 2.633280e+05 2.183824e+05 2.024863e+05 2.161653e+05 2.161653e+05 1.974143e+05 1.974143e+05 1.974143e+05 1.702981e+05 5.093443e+05 3.305002e+05 3.305002e+05 2.920515e+05 2.744835e+05 2.461957e+05 2.461957e+05 4.423791e+05 4.423791e+05 3.869895e+05 3.869895e+05 3.399597e+05 3.201540e+05 2.626467e+05 2.285105e+05 1.989123e+05 1.989123e+05 1.729690e+05 1.818836e+05 5.126855e+05 5.126855e+05 2.408660e+05 2.034012e+05 2.034012e+05 2.181122e+05 2.049473e+05 1.949169e+05 1.842599e+05 1.842599e+05 1.842599e+05 1.862390e+05 1.862390e+05 1.809155e+05 1.788219e+05 1.788219e+05 1.788219e+05 2.005260e+05 2.005260e+05 1.142853e+05 1.748412e+05 1.748412e+05 1.769490e+05 1.737498e+05 1.737498e+05 1.188773e+05 1.309080e+05 1.193239e+05 1.723350e+05 1.723350e+05 1.723350e+05 1.691979e+05 1.812908e+05 1.462049e+05 1.707905e+05 3.734048e+05 1.639363e+05 1.578724e+05 1.671239e+05 1.665123e+05 3.849213e+05 4.221712e+05 4.221712e+05 4.526916e+05 4.526916e+05 4.878415e+05 4.878415e+05 4.878415e+05 5.194203e+05 5.395725e+05 5.395725e+05 5.395725e+05 6.640319e+05 1.710828e+05 1.749238e+05 1.749238e+05 1.749238e+05 1.788121e+05 1.843997e+05 1.878539e+05 2.379557e+05 1.828087e+05 1.888170e+05 1.914926e+05 1.899759e+05 1.972723e+05 1.945484e+05 1.874193e+05 1.759404e+05 1.824786e+05 1.770359e+05 1.770359e+05 1.728524e+05 1.728524e+05 1.827925e+05 1.767195e+05 1.710896e+05 1.693720e+05 3.946132e+05 4.149468e+05 5.170726e+05 7.568259e+05 9.425385e+05 9.437019e+05 9.451720e+05 9.453679e+05 9.444730e+05 9.422210e+05 9.410914e+05 9.379792e+05 9.364394e+05 9.362298e+05 9.044162e+05 1.470275e+05 1.470275e+05 1.593643e+05 1.593643e+05 1.623531e+05 1.667777e+05 1.697355e+05 1.697355e+05 1.697355e+05 1.700477e+05 1.656213e+05 1.656213e+05 1.584719e+05 1.584719e+05 1.584719e+05 1.965438e+05 1.965438e+05 1.965438e+05 1.998447e+05 1.998447e+05 1.559069e+05 1.559069e+05 1.559069e+05 1.599748e+05 1.470275e+05 1.464641e+05 1.464641e+05 1.693091e+05 1.787494e+05 1.787494e+05 8.347519e+05 8.347519e+05 8.347519e+05 8.858794e+05 8.858794e+05 1.578996e+05 1.640891e+05 1.640891e+05 8.674162e+05 8.674162e+05 8.389925e+05 4.539075e+05 4.539075e+05 4.539075e+05 3.796404e+05 3.796404e+05 3.796404e+05 3.609586e+05 3.609586e+05 1.731943e+05 6.229875e+05 6.229875e+05 6.229875e+05 6.095032e+05 8.944773e+05 8.944773e+05 8.944773e+05 8.755979e+05 8.414862e+05 7.275145e+05 7.275145e+05 7.275145e+05 8.907034e+05 8.617731e+05 8.617731e+05 8.617731e+05 8.816627e+05 4.185266e+05 4.429674e+05 4.185266e+05 4.185266e+05 2.068103e+05 2.068103e+05 1.440968e+05 4.841040e+05 4.841040e+05 9.102111e+05 9.362298e+05 8.842969e+05 8.842969e+05 8.816627e+05 7.529387e+05 7.056942e+05 8.374601e+05 8.076254e+05 7.710403e+05 7.710403e+05 7.837981e+05 7.350152e+05 7.728672e+05 7.837981e+05 7.400912e+05 6.735385e+05 6.735385e+05 6.921632e+05 6.921632e+05 7.210503e+05 6.729510e+05 6.504748e+05 6.314982e+05 6.314982e+05 6.089499e+05 6.426569e+05 5.818525e+05 5.364803e+05 5.364803e+05 4.429674e+05 3.896531e+05 3.896531e+05 3.690592e+05 3.690592e+05 3.545191e+05 3.417295e+05 3.008459e+05 1.855674e+05 1.440968e+05 1.440968e+05 1.774771e+05 1.774771e+05 1.774771e+05 1.760735e+05 1.634630e+05 1.804980e+05 1.804980e+05 1.804980e+05 1.797351e+05 1.913839e+05 1.913839e+05 1.913839e+05 1.898169e+05 1.871165e+05 2.256800e+05 2.256800e+05 2.256800e+05 2.311739e+05 2.717320e+05 2.717320e+05 2.717320e+05 2.693157e+05 2.604878e+05 2.341102e+05 2.341102e+05 2.285535e+05 3.219639e+05 3.219639e+05 3.219639e+05 3.288919e+05 3.288919e+05 3.064510e+05 3.064510e+05 3.064510e+05 2.014591e+05 2.014591e+05 3.037059e+05 3.037059e+05 3.037059e+05 2.974186e+05 2.974186e+05 4.076290e+05 4.076290e+05 4.076290e+05 3.586245e+05 3.586245e+05 3.586245e+05 2.770951e+05 2.770951e+05 2.770951e+05 1.889204e+05 3.546046e+05 3.472010e+05 3.002413e+05 2.921995e+05 4.033770e+05 3.666193e+05 3.666193e+05 2.656055e+05 2.656055e+05 2.974626e+05 2.848546e+05 3.368378e+05 3.368378e+05 3.368378e+05 4.109794e+05 4.841040e+05 3.014826e+05 2.505039e+05 2.505039e+05 2.505039e+05 3.318681e+05 2.847261e+05 2.528004e+05 2.360983e+05 2.201004e+05 2.651838e+05 2.201898e+05 2.155377e+05 2.126863e+05 2.126863e+05 1.700552e+05 4.787898e+05 4.787898e+05 3.520597e+05 2.449791e+05 2.449791e+05 3.292754e+05 5.631602e+05 2.282252e+05 2.282252e+05 2.051674e+05 2.051674e+05 2.051674e+05 3.122930e+05 3.702237e+05 2.073902e+05 2.246613e+05 2.063351e+05 1.966442e+05 1.962263e+05 1.962263e+05 1.962263e+05 1.875882e+05 1.875882e+05 1.914183e+05 1.902976e+05 1.902976e+05 1.835317e+05 1.823388e+05 1.731943e+05 1.790466e+05 1.790466e+05 1.684281e+05 1.716354e+05 3.641603e+05 4.640375e+05 4.640375e+05 5.311507e+05 5.311507e+05 4.186304e+05 1.641934e+05 2.545473e+05 3.452037e+05 3.725204e+05 3.793050e+05 4.028643e+05 4.028643e+05 4.328388e+05 4.328388e+05 4.328388e+05 4.613792e+05 4.863932e+05 5.084272e+05 5.415962e+05 5.415962e+05 5.442768e+05 6.841744e+05 2.071003e+05 2.193756e+05 3.951391e+05 5.640514e+05 2.263885e+05 2.350784e+05 2.040733e+05 1.964049e+05 2.098141e+05 1.978610e+05 1.842515e+05 2.180908e+05 1.858696e+05 1.858696e+05 1.823244e+05 1.816868e+05 1.740816e+05 1.738298e+05 1.738298e+05 1.726145e+05 1.761771e+05 1.768626e+05 3.833026e+05 4.264735e+05 4.880995e+05 5.925984e+05 4.778821e+05 5.098913e+05 4.251905e+05 5.645593e+05 5.039640e+05 1.715080e+05 1.593643e+05 9.425385e+05 9.426560e+05 9.438703e+05 9.428345e+05 9.424864e+05 9.433809e+05 9.430267e+05 9.405091e+05 9.386327e+05 9.361118e+05 9.319934e+05 9.271943e+05 9.219884e+05 9.144440e+05 9.113992e+05 9.048563e+05 8.975752e+05 8.934183e+05 8.907924e+05 8.840282e+05 8.801460e+05 8.733067e+05 8.656461e+05 8.619206e+05 8.530180e+05 8.535441e+05 8.399645e+05 8.374972e+05 8.300548e+05 8.266709e+05 8.247743e+05 8.190469e+05 8.150490e+05 8.090875e+05 8.023693e+05 7.918204e+05 7.873960e+05 7.778312e+05 7.647066e+05 7.585652e+05 7.521673e+05 7.436805e+05 7.337816e+05 7.231475e+05 7.170233e+05 7.098012e+05 6.974676e+05 6.846494e+05 6.767147e+05 6.666252e+05 6.539029e+05 6.436124e+05 6.314293e+05 6.175379e+05 6.061398e+05 5.951078e+05 5.824453e+05 5.730737e+05 5.608894e+05 5.518694e+05 5.411550e+05 5.323963e+05 5.197132e+05 5.074917e+05 4.921301e+05 4.847262e+05 4.711883e+05 4.616441e+05 4.514446e+05 4.398451e+05 4.281922e+05 4.183131e+05 4.078289e+05 3.980208e+05 3.870625e+05 3.772014e+05 3.662367e+05 3.542836e+05 3.421951e+05 3.311027e+05 3.215461e+05 3.113028e+05 2.996083e+05 2.903981e+05 2.806608e+05 2.706752e+05 2.600671e+05 2.500481e+05 2.402476e+05 2.306043e+05 2.203011e+05 2.098409e+05 2.011687e+05 1.901938e+05 1.813177e+05 1.723598e+05 1.618390e+05 1.531965e+05 1.448973e+05 1.364561e+05 1.278508e+05 1.195039e+05 1.117315e+05 1.029332e+05 9.589547e+04 8.700656e+04 7.966268e+04 7.290529e+04 6.582302e+04 5.994906e+04 5.429080e+04 4.730649e+04 4.149997e+04 3.587190e+04 2.998303e+04 2.601930e+04 1.984072e+04 1.440831e+04 1.042551e+04 6.346027e+03 1.868008e+03 -3.812596e+03 -8.172838e+03 -8.172838e+03 1.217336e+05 1.217336e+05 1.558844e+05 1.587783e+05 1.618318e+05 1.665123e+05 1.702981e+05 1.702981e+05 1.708511e+05 1.726145e+05 1.740816e+05 1.740816e+05 1.786653e+05 1.786653e+05 1.842515e+05 1.871165e+05 1.882400e+05 1.921932e+05 1.964049e+05 2.071003e+05 2.071003e+05 2.193756e+05 2.193756e+05 2.263885e+05 2.414060e+05 2.449791e+05 2.545473e+05 2.593401e+05 2.730895e+05 2.828338e+05 2.921995e+05 3.075268e+05 3.121714e+05 3.288919e+05 3.461695e+05 3.599514e+05 3.725204e+05 3.725204e+05 3.852199e+05 4.116344e+05 4.116344e+05 4.419479e+05 4.528105e+05 4.528105e+05 4.787898e+05 5.084272e+05 5.084272e+05 5.415962e+05 5.640514e+05 6.049274e+05 6.049274e+05 6.365201e+05 7.056942e+05 7.529387e+05 8.419207e+05 8.774175e+05 1.198428e+05 2.163681e+05 2.163681e+05 2.163681e+05 2.219685e+05 1.850658e+05 1.850658e+05 1.850658e+05 1.925220e+05 1.925220e+05 2.311384e+05 2.311384e+05 2.311384e+05 2.331964e+05 2.294996e+05 1.063144e+05 1.969949e+05 1.969949e+05 1.911558e+05 2.183652e+05 2.183652e+05 2.183652e+05 2.140009e+05 2.102696e+05 4.420522e+05 4.420522e+05 4.420522e+05 4.284686e+05 1.427703e+05 1.427703e+05 1.427703e+05 1.391480e+05 1.352927e+05 1.352927e+05 2.100684e+05 2.100684e+05 1.850028e+05 1.810973e+05 1.198428e+05 1.198428e+05 1.620559e+05 1.620559e+05 1.620559e+05 1.595053e+05 1.538993e+05 1.538993e+05 1.579962e+05 1.977956e+05 1.977956e+05 1.977956e+05 1.983814e+05 1.913966e+05 2.075583e+05 2.069578e+05 1.571070e+05 1.571070e+05 1.571070e+05 1.484809e+05 7.907753e+04 5.787571e+04 4.050213e+04 5.787571e+04 3.259990e+05 3.259990e+05 3.259990e+05 3.851349e+05 3.851349e+05 3.851349e+05 3.703333e+05 1.375483e+04 5.909309e+03 1.375483e+04 1.375483e+04 3.188146e+05 3.188146e+05 3.188146e+05 3.207112e+05 4.987958e+05 4.987958e+05 4.987958e+05 4.844885e+05 5.914416e+05 5.914416e+05 5.914416e+05 5.597257e+05 5.597257e+05 4.629953e+04 4.629953e+04 4.629953e+04 4.261390e+04 1.004790e+05 1.004790e+05 1.004790e+05 9.211140e+04 9.211140e+04 6.776885e+05 6.776885e+05 6.776885e+05 6.953646e+05 2.475219e+05 2.475219e+05 2.475219e+05 2.449952e+05 2.449952e+05 -1.383489e+04 -1.017470e+04 6.854991e+05 6.854991e+05 6.854991e+05 6.646074e+05 7.461626e+05 7.461626e+05 7.461626e+05 7.778129e+05 7.778129e+05 3.355203e+05 3.355203e+05 3.355203e+05 3.272106e+05 7.316579e+05 7.316579e+05 7.316579e+05 7.061122e+05 3.587190e+04 4.864690e+05 4.864690e+05 4.864690e+05 3.826341e+05 3.826341e+05 3.826341e+05 3.825367e+05 2.856978e+05 2.856978e+05 2.856978e+05 2.885208e+05 1.531965e+05 1.169961e+05 1.169961e+05 1.169961e+05 1.136457e+05 2.229066e+05 2.229066e+05 2.229066e+05 2.199243e+05 2.199243e+05 -1.017470e+04 -1.017470e+04 -1.383489e+04 5.686914e+05 5.686914e+05 5.686914e+05 6.122298e+05 6.122298e+05 2.420653e+05 2.475019e+05 2.475019e+05 4.599806e+05 4.599806e+05 4.599806e+05 4.907855e+05 4.907855e+05 4.215118e+05 4.215118e+05 4.215118e+05 4.303551e+05 4.905850e+04 3.985476e+04 4.905850e+04 4.905850e+04 5.417625e+04 1.909580e+05 1.909580e+05 1.909580e+05 1.989294e+05 2.097895e+05 2.214327e+05 2.214327e+05 1.378213e+05 1.378213e+05 1.221344e+05 1.221344e+05 2.369458e+05 2.369458e+05 2.369458e+05 2.525248e+05 2.525248e+05 1.287739e+05 1.287739e+05 1.287739e+05 1.283022e+05 1.217703e+05 1.745029e+05 1.584484e+05 3.075870e+05 3.075870e+05 3.075870e+05 3.019793e+05 3.587979e+05 3.587979e+05 3.587979e+05 3.507719e+05 2.492715e+05 2.492715e+05 2.492715e+05 4.061052e+05 4.061052e+05 4.061052e+05 1.409859e+05 1.409859e+05 1.409859e+05 4.669085e+05 4.669085e+05 4.669085e+05 5.054726e+04 5.054726e+04 5.054726e+04 4.959756e+04 4.296297e+04 1.486483e+05 1.486483e+05 1.486483e+05 6.332254e+04 6.332254e+04 6.463553e+04 2.873005e+05 2.873005e+05 2.873005e+05 2.962448e+05 1.758354e+05 1.758354e+05 1.758354e+05 1.749390e+05 1.333080e+05 1.333080e+05 6.007336e+05 6.007336e+05 6.007336e+05 5.779691e+05 1.309613e+04 1.309613e+04 1.309613e+04 1.384375e+04 7.977776e+04 7.977776e+04 7.977776e+04 8.150878e+04 5.610407e+05 5.610407e+05 5.610407e+05 3.586764e+05 3.586764e+05 3.586764e+05 3.585182e+05 1.968138e+05 1.968138e+05 1.968138e+05 1.972864e+05 1.954986e+05 1.954986e+05 1.954986e+05 1.905734e+05 2.658977e+05 2.658977e+05 2