<?xml version="1.0"?>
 <VTKFile type="UnstructuredGrid" version="1.0" byte_order="LittleEndian" header_type="UInt64">
  <UnstructuredGrid>
    <FieldData>
     <DataArray type="Float64" Name="TimeValue" NumberOfTuples="1" format="ascii">
0.002
     </DataArray>
    </FieldData>
   <Piece NumberOfPoints="3632" NumberOfCells="3379">
    <PointData>
     <DataArray type="Float64" Name="pointP" format="ascii">
4.363497e+05 4.363497e+05 4.327630e+05 4.267600e+05 4.312135e+05 4.318432e+05 4.256030e+05 4.228731e+05 4.306137e+05 4.343104e+05 4.308304e+05 4.246817e+05 4.183919e+05 4.178885e+05 4.173908e+05 4.124080e+05 4.132849e+05 4.169317e+05 4.186655e+05 4.180533e+05 4.181300e+05 4.178024e+05 4.164827e+05 4.142105e+05 4.078122e+05 4.039826e+05 4.064390e+05 4.044935e+05 3.946073e+05 3.873868e+05 3.901496e+05 3.853525e+05 3.741700e+05 3.600068e+05 3.627739e+05 3.667679e+05 3.633613e+05 3.548525e+05 3.496883e+05 3.501560e+05 3.469864e+05 3.424222e+05 3.370324e+05 3.320380e+05 3.275799e+05 3.233582e+05 3.157147e+05 3.062724e+05 3.017430e+05 3.014981e+05 2.989986e+05 2.969410e+05 2.936856e+05 2.856739e+05 2.733615e+05 2.691792e+05 2.636043e+05 2.610524e+05 2.565350e+05 2.526835e+05 2.493728e+05 2.442475e+05 2.371260e+05 2.346483e+05 2.304433e+05 2.245565e+05 2.159575e+05 2.135942e+05 2.107066e+05 2.067905e+05 2.002142e+05 1.967271e+05 1.918756e+05 1.861799e+05 1.781238e+05 1.741964e+05 1.693715e+05 1.654244e+05 1.620010e+05 1.573066e+05 1.480725e+05 1.436048e+05 1.387353e+05 1.341633e+05 1.296548e+05 1.246081e+05 1.196168e+05 1.148931e+05 1.056416e+05 1.003068e+05 9.525760e+04 8.992123e+04 8.469093e+04 8.003507e+04 7.505299e+04 6.973599e+04 6.478611e+04 5.976938e+04 5.485583e+04 4.494786e+04 3.918494e+04 3.416946e+04 2.997987e+04 2.077118e+04 1.495467e+04 1.063724e+04 7.111785e+03 2.383763e+03 1.000000e-200 1.000000e-200 1.000000e-200 1.000000e-200 1.000000e-200 1.000000e-200 1.000000e-200 1.000000e-200 1.000000e-200 1.000000e-200 1.000000e-200 1.000000e-200 1.000000e-200 1.000000e-200 1.000000e-200 1.000000e-200 1.000000e-200 1.000000e-200 1.000000e-200 1.000000e-200 1.000000e-200 1.000000e-200 1.000000e-200 1.000000e-200 1.000000e-200 1.000000e-200 1.000000e-200 1.000000e-200 1.000000e-200 1.000000e-200 1.000000e-200 1.000000e-200 1.000000e-200 1.000000e-200 1.000000e-200 1.000000e-200 1.000000e-200 1.000000e-200 1.000000e-200 1.000000e-200 1.000000e-200 1.000000e-200 1.000000e-200 1.000000e-200 1.000000e-200 1.000000e-200 1.000000e-200 1.000000e-200 1.000000e-200 1.000000e-200 1.000000e-200 1.000000e-200 1.000000e-200 1.000000e-200 1.000000e-200 1.000000e-200 1.000000e-200 1.000000e-200 1.000000e-200 1.000000e-200 1.000000e-200 1.000000e-200 1.000000e-200 1.000000e-200 1.000000e-200 1.000000e-200 1.000000e-200 1.000000e-200 1.000000e-200 1.000000e-200 1.000000e-200 1.000000e-200 1.000000e-200 1.011268e+05 1.011268e+05 1.011268e+05 1.029723e+05 1.029723e+05 1.029723e+05 1.033045e+05 1.030494e+05 1.052363e+05 1.039802e+05 1.082928e+05 1.082928e+05 1.082928e+05 1.079600e+05 8.947649e+04 8.947649e+04 8.947649e+04 8.827576e+04 8.961030e+04 2.200573e+05 2.200573e+05 2.200573e+05 2.177096e+05 2.262258e+05 2.262258e+05 2.262258e+05 2.166648e+05 7.440398e+04 7.440398e+04 7.440398e+04 7.819589e+04 8.159481e+04 8.219919e+04 1.000000e-200 1.000000e-200 1.000000e-200 1.000000e-200 1.000000e-200 2.611412e+05 2.611412e+05 2.611412e+05 2.533482e+05 1.000000e-200 1.000000e-200 1.000000e-200 1.000000e-200 1.000000e-200 3.784998e+05 3.784998e+05 3.784998e+05 1.726837e+05 1.726837e+05 1.726837e+05 1.748027e+05 1.247976e+05 1.247976e+05 1.247976e+05 2.843781e+05 2.843781e+05 2.843781e+05 2.962278e+05 1.000000e-200 1.000000e-200 1.000000e-200 1.000000e-200 1.971015e+05 1.971015e+05 1.987486e+05 2.809630e+05 2.809630e+05 2.809630e+05 2.974523e+05 2.974523e+05 1.000000e-200 1.000000e-200 1.000000e-200 1.000000e-200 1.000000e-200 9.260070e+04 9.260070e+04 9.260070e+04 9.018663e+04 9.018663e+04 2.322792e+05 2.322792e+05 1.893379e+05 1.893379e+05 1.893379e+05 1.875851e+05 1.308081e+05 1.308081e+05 1.308081e+05 1.278922e+05 1.275177e+05 2.087442e+05 2.087442e+05 2.087442e+05 1.838412e+05 1.838412e+05 1.841831e+05 3.667679e+05 3.523136e+05 3.523136e+05 1.000000e-200 1.000000e-200 1.000000e-200 1.266994e+05 1.000000e-200 1.000000e-200 1.065400e+05 1.015115e+05 1.015115e+05 1.015115e+05 1.024037e+05 9.273219e+04 1.002975e+05 1.002975e+05 1.002975e+05 1.028790e+05 1.028790e+05 7.777775e+04 7.777775e+04 7.777775e+04 8.141315e+04 4.918506e+04 4.918506e+04 4.918506e+04 4.978082e+04 2.078281e+05 2.041890e+05 1.968434e+05 2.258558e+05 2.258558e+05 1.075469e+05 1.075469e+05 1.075469e+05 1.092444e+05 1.797797e+05 1.797797e+05 1.797797e+05 1.814737e+05 1.814737e+05 1.758787e+05 1.125334e+04 1.125334e+04 1.125334e+04 1.068213e+04 2.147669e+04 2.147669e+04 2.147669e+04 2.612411e+04 3.163504e+04 1.536103e+05 1.536103e+05 1.536103e+05 1.525949e+05 1.000000e-200 1.000000e-200 4.905680e+04 4.905680e+04 4.905680e+04 5.397981e+04 1.000000e-200 1.000000e-200 1.000000e-200 1.000000e-200 2.153177e+05 2.153177e+05 2.153177e+05 2.239399e+05 2.239399e+05 1.000000e-200 1.000000e-200 1.000000e-200 1.000000e-200 2.509833e+05 2.509833e+05 2.509833e+05 2.437799e+05 3.080291e+05 3.080291e+05 3.080291e+05 3.127472e+05 1.000000e-200 1.000000e-200 1.000000e-200 1.326504e+05 1.326504e+05 1.427691e+05 1.427691e+05 1.427691e+05 1.049094e+05 1.049094e+05 1.049094e+05 1.030920e+05 1.000000e-200 1.000000e-200 1.000000e-200 1.000000e-200 1.000000e-200 3.934535e+05 3.934535e+05 3.934535e+05 3.878198e+05 3.878198e+05 1.356100e+05 2.597557e+05 2.597557e+05 2.598201e+05 1.000000e-200 1.000000e-200 1.000000e-200 1.000000e-200 1.000000e-200 1.000000e-200 1.000000e-200 1.000000e-200 3.453895e+05 3.453895e+05 3.424801e+05 2.958526e+05 2.958526e+05 1.000000e-200 1.000000e-200 1.000000e-200 1.000000e-200 2.832055e+05 2.832055e+05 2.832055e+05 2.806946e+05 1.244300e+05 1.208976e+05 1.813270e+05 1.813270e+05 1.813270e+05 1.820296e+05 2.077848e+05 2.077848e+05 2.077848e+05 2.036794e+05 2.036794e+05 1.000000e-200 1.000000e-200 1.000000e-200 1.000000e-200 1.000000e-200 1.942449e+05 1.964107e+05 3.767307e+05 3.767307e+05 3.767307e+05 3.732434e+05 1.000000e-200 1.000000e-200 1.000000e-200 1.000000e-200 1.000000e-200 1.000000e-200 1.000000e-200 1.303121e+05 1.303121e+05 1.303121e+05 1.253937e+05 1.253937e+05 8.400406e+04 8.482208e+04 8.482208e+04 1.000000e-200 1.000000e-200 1.000000e-200 1.000000e-200 1.000000e-200 1.000000e-200 1.000000e-200 1.000000e-200 1.000000e-200 1.000000e-200 1.000000e-200 1.000000e-200 1.000000e-200 1.000000e-200 1.226984e+05 1.226984e+05 1.193697e+05 1.000000e-200 1.000000e-200 1.000000e-200 1.000000e-200 1.000000e-200 1.000000e-200 1.000000e-200 6.036459e+03 7.299391e+04 7.299391e+04 7.299391e+04 6.879088e+04 6.879088e+04 1.847910e+05 2.035630e+05 1.637464e+05 1.028063e+05 1.028063e+05 1.028063e+05 1.037543e+05 1.037543e+05 1.067259e+05 1.067259e+05 1.070604e+05 9.963882e+04 9.963882e+04 9.910465e+04 9.746065e+04 1.104343e+05 1.104343e+05 1.104343e+05 1.091174e+05 1.091174e+05 1.091174e+05 1.164603e+05 1.164603e+05 1.164603e+05 8.141543e+04 8.423372e+04 1.047306e+05 1.218119e+05 1.218119e+05 1.218119e+05 1.186468e+05 1.272395e+05 1.272395e+05 1.272395e+05 1.472344e+05 1.472344e+05 1.472344e+05 1.431763e+05 3.516064e+04 3.516064e+04 3.516064e+04 6.585647e+04 6.585647e+04 6.585647e+04 1.299846e+05 1.299846e+05 1.299846e+05 2.102660e+05 2.102660e+05 2.076078e+05 1.000000e-200 1.142742e+04 1.142742e+04 2.486942e+05 2.486942e+05 2.486942e+05 2.664435e+05 2.664435e+05 1.069783e+05 1.069783e+05 1.000000e-200 1.000000e-200 1.000000e-200 2.789911e+05 2.789911e+05 2.789911e+05 2.682427e+05 1.846367e+04 1.846367e+04 1.846367e+04 1.214901e+05 1.200449e+05 1.167877e+05 5.353863e+04 5.353863e+04 5.353863e+04 1.000000e-200 1.000000e-200 1.000000e-200 1.000000e-200 1.000000e-200 1.332704e+05 1.332704e+05 1.332704e+05 3.408764e+05 3.408764e+05 3.408764e+05 3.376353e+05 2.043974e+05 2.043974e+05 2.043974e+05 1.982388e+05 3.590746e+05 3.590746e+05 3.590746e+05 1.864927e+05 7.481817e+04 7.481817e+04 8.420089e+04 8.420089e+04 8.420089e+04 8.258717e+04 8.439578e+04 1.000000e-200 1.000000e-200 1.000000e-200 1.000000e-200 1.000000e-200 2.662245e+05 2.662245e+05 1.000000e-200 1.000000e-200 1.000000e-200 1.000000e-200 1.000000e-200 1.000000e-200 1.000000e-200 1.000000e-200 2.346483e+05 2.287928e+05 2.287928e+05 1.475080e+04 1.475080e+04 1.475080e+04 1.613743e+04 1.000000e-200 4.346828e+04 4.346828e+04 4.580560e+04 2.924355e+05 2.924355e+05 2.924355e+05 3.968066e+05 3.968066e+05 3.746515e+05 3.746515e+05 3.746515e+05 3.948905e+05 3.958914e+05 3.958914e+05 3.958914e+05 3.984656e+05 3.984656e+05 4.126466e+05 3.466059e+05 3.466059e+05 7.816214e+04 1.000000e-200 1.000000e-200 1.000000e-200 1.728776e+04 4.107879e+05 3.923945e+05 4.107879e+05 4.107879e+05 2.430388e+05 2.430388e+05 2.430388e+05 2.311017e+05 2.311017e+05 2.714920e+05 2.714920e+05 2.847931e+05 2.847931e+05 2.439345e+05 2.439345e+05 2.439345e+05 2.523937e+05 2.523937e+05 1.066444e+05 1.066444e+05 1.066444e+05 1.092077e+05 1.092077e+05 2.796411e+05 2.796411e+05 2.796411e+05 2.642600e+05 2.642600e+05 1.669372e+05 1.669372e+05 1.669372e+05 1.142528e+05 1.000000e-200 1.000000e-200 1.000000e-200 1.000000e-200 1.000000e-200 1.000000e-200 1.000000e-200 1.000000e-200 3.095215e+03 3.095215e+03 3.750865e+04 3.750865e+04 3.750865e+04 4.622638e+04 4.622638e+04 2.185137e+05 2.185137e+05 2.185137e+05 1.155778e+05 1.155778e+05 1.155778e+05 1.199002e+05 1.199002e+05 6.817985e+04 7.584267e+04 6.398533e+04 6.398533e+04 6.398533e+04 5.825360e+04 1.073275e+05 1.073275e+05 1.072568e+05 9.683021e+04 9.683021e+04 9.616227e+04 9.616227e+04 9.867819e+04 1.001996e+05 1.159852e+05 1.113926e+05 1.159852e+05 1.159852e+05 1.052363e+05 1.052363e+05 1.025181e+05 1.292191e+05 1.288876e+05 2.496631e+05 2.496631e+05 2.496631e+05 2.430648e+05 2.479637e+05 4.821427e+04 4.821427e+04 4.821427e+04 4.386569e+04 1.000000e-200 1.000000e-200 1.000000e-200 1.000000e-200 1.000000e-200 1.000000e-200 2.519007e+05 2.594844e+05 2.623810e+05 8.483065e+04 8.483065e+04 8.342827e+04 1.000000e-200 1.000000e-200 1.000000e-200 1.000000e-200 1.000000e-200 1.000000e-200 1.000000e-200 1.000000e-200 1.733726e+03 1.733726e+03 1.733726e+03 2.696410e+03 1.000000e-200 1.000000e-200 1.000000e-200 1.000000e-200 8.657546e+04 1.000000e-200 1.000000e-200 1.000000e-200 2.022591e+05 2.022591e+05 2.022591e+05 1.000000e-200 3.829308e+05 3.829308e+05 2.682781e+04 2.682781e+04 2.682781e+04 2.343553e+05 1.000000e-200 1.000000e-200 1.302227e+04 1.000000e-200 1.000000e-200 1.000000e-200 1.000000e-200 1.000000e-200 1.000000e-200 1.000000e-200 1.000000e-200 1.000000e-200 9.743837e+04 9.743837e+04 1.000000e-200 1.000000e-200 1.000000e-200 1.000000e-200 3.437436e+05 3.433511e+05 3.433511e+05 2.141843e+05 1.000000e-200 1.000000e-200 1.000000e-200 3.612068e+05 3.612068e+05 3.422049e+05 2.649622e+05 1.000000e-200 1.000000e-200 1.000000e-200 4.271835e+05 4.271835e+05 1.000000e-200 3.991679e+05 3.991679e+05 1.000000e-200 1.000000e-200 1.000000e-200 1.000000e-200 1.000000e-200 1.000000e-200 1.000000e-200 1.000000e-200 1.000000e-200 1.000000e-200 1.744470e+05 1.752007e+05 1.000000e-200 1.000000e-200 1.000000e-200 1.148931e+05 1.154800e+05 1.154800e+05 1.000000e-200 1.000000e-200 1.000000e-200 1.000000e-200 3.123141e+05 1.204653e+05 4.192890e+05 4.192890e+05 4.123153e+05 4.234343e+05 4.234343e+05 3.469864e+05 3.339203e+05 2.384515e+05 2.384515e+05 2.384515e+05 3.982806e+05 3.982806e+05 3.982806e+05 3.997027e+05 1.000000e-200 1.000000e-200 2.511474e+05 1.000000e-200 1.000000e-200 1.000000e-200 1.000000e-200 3.530435e+04 3.530435e+04 3.530435e+04 1.000000e-200 1.000000e-200 3.370324e+05 3.229227e+05 3.229227e+05 1.620010e+05 1.622303e+05 1.436048e+05 1.453063e+05 1.000000e-200 4.056669e+05 4.056669e+05 1.000000e-200 1.000000e-200 1.000000e-200 1.000000e-200 3.934665e+05 1.000000e-200 1.000000e-200 1.000000e-200 1.000000e-200 1.000000e-200 1.000000e-200 1.000000e-200 1.000000e-200 1.000000e-200 2.245565e+05 2.199749e+05 2.199749e+05 4.925119e+04 4.148663e+05 4.148663e+05 3.998183e+05 3.998183e+05 6.591807e+04 6.591807e+04 6.591807e+04 1.000000e-200 1.000000e-200 1.000000e-200 7.404878e+04 7.404878e+04 3.398858e+05 4.130451e+05 4.028231e+05 3.882296e+05 3.362823e+05 4.053849e+05 1.000000e-200 1.657265e+05 1.675062e+05 1.000000e-200 1.000000e-200 2.789164e+05 2.482857e+05 1.000000e-200 1.000000e-200 5.880004e+04 5.880004e+04 4.363497e+05 4.276368e+05 4.078445e+05 4.078445e+05 4.078445e+05 4.220198e+05 3.643014e+05 3.400702e+05 3.840353e+05 3.783555e+05 1.570524e+05 1.570524e+05 1.529829e+05 3.294749e+05 1.000000e-200 1.000000e-200 2.721483e+05 2.408694e+05 2.408694e+05 2.408694e+05 3.939230e+04 1.000000e-200 1.000000e-200 1.000000e-200 4.234826e+05 3.725525e+05 3.858873e+05 3.687656e+05 1.000000e-200 2.190773e+05 3.699454e+05 3.897991e+05 1.000000e-200 1.000000e-200 1.000000e-200 1.926407e+05 2.366825e+05 1.000000e-200 1.000000e-200 3.297757e+05 3.107784e+05 3.107784e+05 1.000000e-200 1.000000e-200 1.000000e-200 1.000000e-200 1.000000e-200 2.735603e+05 1.109135e+05 1.000000e-200 3.872545e+05 3.766902e+05 3.469948e+04 1.039519e+05 1.025044e+05 1.025044e+05 3.595683e+05 3.595683e+05 3.412767e+05 3.412767e+05 2.857046e+04 3.487676e+04 1.000000e-200 1.000000e-200 1.000000e-200 7.274152e+03 7.274152e+03 3.208304e+03 3.208304e+03 1.000000e-200 1.000000e-200 1.000000e-200 3.580840e+05 3.580840e+05 3.127726e+05 3.127726e+05 3.127726e+05 2.864465e+05 1.000000e-200 1.000000e-200 1.000000e-200 1.000000e-200 1.000000e-200 1.000000e-200 3.167098e+05 3.850164e+05 1.000000e-200 1.000000e-200 1.000000e-200 6.233385e+04 6.233385e+04 6.846832e+04 1.000000e-200 1.000000e-200 1.000000e-200 1.000000e-200 3.622231e+05 3.622231e+05 1.638522e+05 4.058202e+05 2.232077e+05 2.232077e+05 2.209598e+05 1.117516e+05 1.139570e+05 1.000000e-200 1.000000e-200 1.000000e-200 3.995694e+05 1.000000e-200 7.508728e+02 7.508728e+02 7.508728e+02 9.216218e+04 9.216218e+04 9.216218e+04 1.381446e+05 2.109223e+04 2.109223e+04 2.109223e+04 1.174926e+04 4.032663e+05 3.917916e+05 2.688957e+05 2.540912e+05 2.540912e+05 7.649303e+04 7.649303e+04 7.649303e+04 2.743695e+05 1.000000e-200 3.859816e+05 4.054329e+05 4.054329e+05 3.917205e+05 9.313178e+04 1.000000e-200 1.000000e-200 1.000000e-200 1.000000e-200 1.000000e-200 3.648479e+05 1.000000e-200 1.000000e-200 1.000000e-200 1.000000e-200 1.502555e+05 1.529647e+05 3.907298e+05 4.621396e+04 4.621396e+04 4.621396e+04 1.000000e-200 1.000000e-200 3.059928e+05 2.891570e+05 2.891570e+05 3.583093e+05 3.511025e+05 1.000000e-200 1.000000e-200 3.548215e+05 3.548215e+05 3.548215e+05 3.509958e+05 1.000000e-200 1.000000e-200 1.000000e-200 1.000000e-200 1.000000e-200 1.655061e+05 1.655061e+05 1.655061e+05 1.686359e+05 1.000000e-200 3.479757e+05 3.479757e+05 3.479757e+05 3.561188e+05 3.792661e+05 1.000000e-200 1.000000e-200 1.000000e-200 1.000000e-200 1.000000e-200 3.034696e+05 3.034696e+05 6.812933e+04 6.403845e+04 2.709349e+05 2.709349e+05 1.000000e-200 1.000000e-200 3.513837e+05 3.923945e+05 3.823788e+05 1.000000e-200 1.000000e-200 3.600828e+05 2.749463e+04 2.749463e+04 3.013787e+04 3.013787e+04 1.000000e-200 4.584142e+04 5.133065e+04 2.399985e+05 1.000000e-200 1.000000e-200 1.000000e-200 2.961661e+05 2.961661e+05 3.740884e+05 3.740884e+05 3.740884e+05 3.627311e+05 1.000000e-200 1.000000e-200 1.000000e-200 1.636620e+05 1.585678e+05 2.304811e+05 1.000000e-200 1.000000e-200 1.000000e-200 1.000000e-200 1.000000e-200 1.003598e+04 4.327630e+05 3.466264e+05 3.299150e+05 3.299150e+05 1.000000e-200 1.000000e-200 1.000000e-200 1.000000e-200 3.528037e+05 3.528037e+05 3.256874e+05 3.256874e+05 3.207341e+05 2.529001e+05 2.063870e+05 3.646333e+05 1.000000e-200 1.000000e-200 3.584764e+05 3.607457e+05 1.133603e+05 2.140840e+05 2.140840e+05 2.140840e+05 2.162227e+05 1.000000e-200 2.764339e+04 3.164167e+04 1.000000e-200 1.000000e-200 8.513837e+04 8.849077e+04 1.000000e-200 1.000000e-200 2.325320e+05 1.000000e-200 1.000000e-200 1.000000e-200 1.000000e-200 1.000000e-200 1.486272e+04 1.000000e-200 1.000000e-200 1.000000e-200 3.205226e+05 3.553461e+05 3.553461e+05 4.455390e+03 9.422569e+03 9.422569e+03 1.791133e+05 1.000000e-200 1.000000e-200 1.000000e-200 2.923740e+05 2.923740e+05 1.018967e+05 1.000000e-200 1.755168e+05 1.697148e+05 1.576670e+05 2.915386e+05 2.915386e+05 2.135978e+05 2.135978e+05 2.135978e+05 1.526937e+05 1.502197e+05 2.571954e+05 2.516661e+05 2.516661e+05 1.046252e+05 1.000198e+05 1.000198e+05 1.899393e+05 1.430742e+05 1.463196e+05 3.446265e+05 3.244151e+05 3.244151e+05 3.244151e+05 3.393725e+05 1.000000e-200 1.000000e-200 1.542529e+04 1.974147e+04 1.000000e-200 1.000000e-200 1.000000e-200 5.608611e+04 5.608611e+04 5.608611e+04 5.471005e+04 6.067773e+04 1.000000e-200 1.000000e-200 1.000000e-200 4.162490e+04 4.162490e+04 1.000000e-200 1.000000e-200 1.000000e-200 1.000000e-200 3.236995e+04 1.000000e-200 1.000000e-200 1.000000e-200 2.390267e+05 2.390267e+05 2.348768e+05 2.581935e+03 2.581935e+03 1.217400e+05 1.000000e-200 1.000000e-200 1.000000e-200 1.000000e-200 1.000000e-200 1.000000e-200 1.000000e-200 3.260332e+05 3.092003e+05 3.092003e+05 1.000000e-200 1.000000e-200 1.000000e-200 1.000000e-200 1.000000e-200 4.546961e+04 3.237621e+05 3.237621e+05 3.102372e+05 3.011545e+05 3.011545e+05 3.011545e+05 1.929921e+05 1.929921e+05 1.938727e+05 1.811338e+05 1.811338e+05 1.838740e+05 1.000000e-200 1.000000e-200 1.000000e-200 3.467822e+05 3.259261e+05 1.000000e-200 1.000000e-200 1.000000e-200 3.549414e+05 1.000000e-200 1.000000e-200 1.000000e-200 1.000000e-200 1.000000e-200 1.000000e-200 1.000000e-200 1.000000e-200 1.000000e-200 1.000000e-200 1.000000e-200 1.605667e+05 1.578798e+05 1.000000e-200 2.702589e+05 2.702589e+05 2.702589e+05 5.886156e+04 2.113828e+05 1.000000e-200 1.978608e+05 3.387808e+05 1.000000e-200 2.199708e+05 2.199708e+05 3.413162e+05 3.240410e+05 3.240410e+05 1.732742e+05 1.725954e+05 3.185313e+05 3.185313e+05 3.015676e+05 1.000000e-200 1.000000e-200 6.827380e+04 1.012806e+05 3.048367e+05 1.341838e+05 3.334004e+05 3.159563e+05 3.159563e+05 1.000000e-200 4.418794e+04 2.854103e+04 3.173522e+05 3.302127e+05 1.000000e-200 1.000000e-200 1.000000e-200 1.000000e-200 1.088512e+05 1.000000e-200 1.000000e-200 1.000000e-200 3.000097e+05 1.000000e-200 1.000000e-200 3.558586e+04 3.558586e+04 3.558586e+04 2.898328e+04 2.898328e+04 2.113555e+05 2.801590e+05 3.134351e+05 2.403623e+05 2.403623e+05 1.465134e+05 1.465134e+05 1.463273e+05 1.392481e+05 1.392481e+05 3.115787e+05 3.115787e+05 3.115787e+05 2.913773e+05 2.913773e+05 1.782626e+05 1.782626e+05 1.803046e+05 2.052175e+05 1.909166e+05 1.909166e+05 1.909166e+05 1.000000e-200 2.135603e+05 2.031149e+05 2.031149e+05 1.000000e-200 1.000000e-200 1.000000e-200 1.000000e-200 2.931888e+05 1.695252e+05 1.640618e+05 3.259261e+05 2.387518e+05 2.387518e+05 2.253358e+05 2.253358e+05 2.504188e+05 2.491828e+05 2.902722e+05 1.000000e-200 1.000000e-200 1.000000e-200 1.000000e-200 1.000000e-200 2.646344e+05 1.000000e-200 6.352543e+04 1.000000e-200 3.084902e+05 2.813768e+05 2.813768e+05 2.700824e+05 2.700824e+05 3.074136e+04 9.481283e+04 9.481283e+04 9.481283e+04 3.158740e+03 2.565578e+05 1.196217e+05 1.000000e-200 1.000000e-200 1.000000e-200 1.000000e-200 1.000000e-200 1.000000e-200 1.000000e-200 1.000000e-200 1.000000e-200 2.069037e+05 1.666235e+04 1.000000e-200 2.236298e+05 2.236298e+05 2.184336e+05 1.417586e+05 6.958203e+04 6.958203e+04 2.728097e+05 1.818785e+05 1.815877e+05 1.000000e-200 1.364132e+05 1.364132e+05 1.447406e+05 1.000000e-200 1.000000e-200 1.000000e-200 1.000000e-200 9.764830e+04 9.764830e+04 9.764830e+04 1.556080e+05 4.674681e+04 1.223621e+05 3.947274e+04 3.515421e+04 3.515421e+04 2.155348e+04 1.000000e-200 1.985026e+05 1.985026e+05 2.423961e+05 4.584279e+03 4.584279e+03 4.584279e+03 6.798229e+03 2.792030e+05 1.658700e+05 2.701754e+05 2.449066e+05 8.705582e+04 1.890617e+05 1.904022e+05 2.677399e+05 1.601930e+05 1.554952e+05 1.000000e-200 1.507483e+05 2.187866e+05 2.187866e+05 2.187866e+05 3.054886e+05 2.977006e+05 2.144862e+05 2.472893e+05 3.054886e+05 1.000000e-200 1.000000e-200 3.688334e+03 1.742466e+05 1.622469e+05 1.280737e+05 1.000000e-200 1.000000e-200 1.000000e-200 1.989861e+04 2.562840e+05 2.562840e+05 2.713481e+05 2.713481e+05 1.415465e+05 1.000000e-200 2.412509e+05 8.169292e+04 8.169292e+04 8.169292e+04 5.626986e+04 2.372558e+05 2.372558e+05 7.812071e+04 1.225106e+05 1.737189e+05 1.000000e-200 2.138449e+05 2.138449e+05 2.138449e+05 1.000000e-200 1.000000e-200 1.000000e-200 3.007113e+05 1.191186e+05 2.439363e+05 2.439363e+05 1.000000e-200 1.000000e-200 1.000000e-200 1.000000e-200 5.485308e+04 5.485308e+04 5.485308e+04 1.933517e+05 1.933517e+05 1.933517e+05 2.088127e+05 8.931965e+04 8.849622e+04 9.851801e+04 9.851801e+04 9.851801e+04 6.536559e+04 6.909533e+04 6.909533e+04 1.951384e+05 1.807219e+05 2.884884e+05 8.729344e+04 8.609896e+04 1.000000e-200 1.000000e-200 1.484130e+05 1.711173e+04 1.000000e-200 1.000000e-200 1.000000e-200 2.177210e+05 1.386320e+05 2.869016e+04 2.854252e+04 7.777812e+04 1.458967e+05 5.366344e+04 5.366344e+04 1.810907e+05 1.909986e+05 1.823189e+05 1.738016e+04 1.169119e+05 2.205129e+05 1.000000e-200 1.000000e-200 1.000000e-200 1.000000e-200 1.891989e+05 1.891989e+05 1.891989e+05 1.794559e+05 1.794559e+05 1.418048e+05 2.004453e+05 1.921125e+05 1.921125e+05 2.699672e+04 1.280354e+05 1.342838e+05 1.553513e+05 1.553513e+05 1.634668e+05 1.843351e+05 1.000000e-200 1.000000e-200 1.775228e+05 1.767660e+05 1.000000e-200 1.000000e-200 3.907345e+04 5.491910e+04 5.491910e+04 5.491910e+04 1.071023e+05 1.632785e+04 2.290432e+04 8.501015e+04 8.501015e+04 8.501015e+04 9.599750e+04 1.002077e+05 1.352214e+05 9.258261e+04 3.776172e+04 1.469860e+05 1.469860e+05 1.469860e+05 1.464471e+05 4.889708e+04 1.682363e+05 1.682363e+05 1.682363e+05 1.638957e+05 2.090061e+03 1.655205e+05 1.655205e+05 1.094715e+05 9.270438e+03 9.270438e+03 9.270438e+03 3.277063e+03 3.277063e+03 2.055303e+05 1.887596e+05 1.887596e+05 1.513748e+04 5.172100e+04 5.172100e+04 1.401676e+05 2.281538e+04 2.281538e+04 2.281538e+04 3.219957e+04 3.219957e+04 3.219957e+04 9.836397e+04 9.836397e+04 1.009751e+05 6.512653e+04 1.905901e+04 1.905901e+04 9.660424e+04 1.172423e+05 1.172423e+05 1.117825e+05 1.117825e+05 1.621754e+05 6.059278e+04 6.645644e+04 6.645644e+04 6.093158e+04 6.093158e+04 8.392108e+04 8.392108e+04 9.226400e+04 1.351957e+05 1.351957e+05 1.285714e+05 1.285714e+05 7.512776e+04 1.349102e+05 1.726164e+05 1.650253e+05 1.650253e+05 1.286789e+05 1.088722e+05 8.327263e+04 1.559155e+05 1.559155e+05 1.325635e+05 1.637464e+05 1.637464e+05 2.525596e+04 2.525596e+04 1.403277e+05 1.489641e+05 1.489641e+05 1.489641e+05 1.416937e+05 1.416937e+05 1.625388e+05 1.176714e+05 1.176714e+05 1.461997e+05 1.461997e+05 1.414987e+05 8.432378e+04 1.066099e+05 5.752492e+04 5.126403e+04 1.504263e+05 1.504263e+05 5.944894e+04 5.944894e+04 9.785590e+04 9.785590e+04 3.570118e+04 1.093989e+05 1.093989e+05 1.063870e+05 7.682101e+04 7.682101e+04 1.339911e+05 1.339911e+05 1.298447e+05 1.180308e+05 1.180308e+05 8.702232e+04 8.702232e+04 1.015171e+05 1.015171e+05 9.455504e+04 9.576410e+04 9.576410e+04 6.748145e+04 6.808457e+04 8.563818e+04 1.141246e+05 1.139876e+05 1.448219e+05 1.391591e+05 1.316158e+05 1.316158e+05 1.390348e+05 7.919213e+04 7.919213e+04 7.274836e+04 1.226945e+05 1.371157e+05 1.427512e+05 1.427512e+05 9.570595e+04 9.570595e+04 1.321305e+05 1.341923e+05 8.808949e+04 8.808949e+04 1.242497e+05 1.242497e+05 6.501007e+04 7.931560e+04 7.931560e+04 7.931560e+04 7.572951e+04 7.572951e+04 1.240222e+05 1.208999e+05 1.137365e+05 1.137365e+05 1.171487e+05 1.171487e+05 1.208778e+05 8.822318e+04 1.308841e+05 1.227862e+05 1.063753e+05 1.014214e+05 1.108315e+05 1.058537e+05 1.145015e+05 9.521294e+04 1.034702e+05 1.082095e+05 1.062232e+05 1.065070e+05 1.129192e+05 1.113926e+05 9.941822e+04 9.941822e+04 1.055803e+05 1.045966e+05 1.097819e+05 9.795437e+04 9.916919e+04 1.066866e+05 1.066866e+05 1.062974e+05 1.062974e+05 1.013739e+05 1.013739e+05 1.051057e+05 1.037443e+05 1.037443e+05 1.037443e+05 1.039466e+05 1.039466e+05 9.416929e+04 9.416929e+04 9.416929e+04 7.901979e+04 7.901979e+04 5.001261e+04 5.415380e+04 9.790789e+04 5.001261e+04 5.001261e+04 4.240053e+04 6.932392e+04 8.202503e+04 8.462601e+04 8.857124e+04 8.938736e+04 9.334678e+04 9.451480e+04 9.652251e+04 9.652251e+04 1.018501e+05 4.114501e+04 9.790789e+04 1.316353e+05 1.173440e+05 1.051655e+05 1.322470e+05 1.322470e+05 1.229168e+05 1.230009e+05 1.229168e+05 1.016034e+05 1.191310e+05 1.031599e+05 9.884757e+04 9.976664e+04 9.976664e+04 1.040164e+05 4.363497e+05 4.363497e+05 4.327630e+05 4.267600e+05 4.312135e+05 4.318432e+05 4.256030e+05 4.228731e+05 4.306137e+05 4.343104e+05 4.308304e+05 4.246817e+05 4.183919e+05 4.178885e+05 4.173908e+05 4.124080e+05 4.132849e+05 4.169317e+05 4.186655e+05 4.180533e+05 4.181300e+05 4.178024e+05 4.164827e+05 4.142105e+05 4.078122e+05 4.039826e+05 4.064390e+05 4.044935e+05 3.946073e+05 3.873868e+05 3.901496e+05 3.853525e+05 3.741700e+05 3.600068e+05 3.627739e+05 3.667679e+05 3.633613e+05 3.548525e+05 3.496883e+05 3.501560e+05 3.469864e+05 3.424222e+05 3.370324e+05 3.320380e+05 3.275799e+05 3.233582e+05 3.157147e+05 3.062724e+05 3.017430e+05 3.014981e+05 2.989986e+05 2.969410e+05 2.936856e+05 2.856739e+05 2.733615e+05 2.691792e+05 2.636043e+05 2.610524e+05 2.565350e+05 2.526835e+05 2.493728e+05 2.442475e+05 2.371260e+05 2.346483e+05 2.304433e+05 2.245565e+05 2.159575e+05 2.135942e+05 2.107066e+05 2.067905e+05 2.002142e+05 1.967271e+05 1.918756e+05 1.861799e+05 1.781238e+05 1.741964e+05 1.693715e+05 1.654244e+05 1.620010e+05 1.573066e+05 1.480725e+05 1.436048e+05 1.387353e+05 1.341633e+05 1.296548e+05 1.246081e+05 1.196168e+05 1.148931e+05 1.056416e+05 1.003068e+05 9.525760e+04 8.992123e+04 8.469093e+04 8.003507e+04 7.505299e+04 6.973599e+04 6.478611e+04 5.976938e+04 5.485583e+04 4.494786e+04 3.918494e+04 3.416946e+04 2.997987e+04 2.077118e+04 1.495467e+04 1.063724e+04 7.111785e+03 2.383763e+03 1.000000e-200 1.000000e-200 1.000000e-200 1.000000e-200 1.000000e-200 1.000000e-200 1.000000e-200 1.000000e-200 1.000000e-200 1.000000e-200 1.000000e-200 1.000000e-200 1.000000e-200 1.000000e-200 1.000000e-200 1.000000e-200 1.000000e-200 1.000000e-200 1.000000e-200 1.000000e-200 1.000000e-200 1.000000e-200 1.000000e-200 1.000000e-200 1.000000e-200 1.000000e-200 1.000000e-200 1.000000e-200 1.000000e-200 1.000000e-200 1.000000e-200 1.000000e-200 1.000000e-200 1.000000e-200 1.000000e-200 1.000000e-200 1.000000e-200 1.000000e-200 1.000000e-200 1.000000e-200 1.000000e-200 1.000000e-200 1.000000e-200 1.000000e-200 1.000000e-200 1.000000e-200 1.000000e-200 1.000000e-200 1.000000e-200 1.000000e-200 1.000000e-200 1.000000e-200 1.000000e-200 1.000000e-200 1.000000e-200 1.000000e-200 1.000000e-200 1.000000e-200 1.000000e-200 1.000000e-200 1.000000e-200 1.000000e-200 1.000000e-200 1.000000e-200 1.000000e-200 1.000000e-200 1.000000e-200 1.000000e-200 1.000000e-200 1.000000e-200 1.000000e-200 1.000000e-200 1.000000e-200 1.011268e+05 1.011268e+05 1.011268e+05 1.029723e+05 1.029723e+05 1.029723e+05 1.033045e+05 1.030494e+05 1.052363e+05 1.039802e+05 1.082928e+05 1.082928e+05 1.082928e+05 1.079600e+05 8.947649e+04 8.947649e+04 8.947649e+04 8.827576e+04 8.961030e+04 2.200573e+05 2.200573e+05 2.200573e+05 2.177096e+05 2.262258e+05 2.262258e+05 2.262258e+05 2.166648e+05 7.440398e+04 7.440398e+04 7.440398e+04 7.819589e+04 8.159481e+04 8.219919e+04 1.000000e-200 1.000000e-200 1.000000e-200 1.000000e-200 1.000000e-200 2.611412e+05 2.611412e+05 2.611412e+05 2.533482e+05 1.000000e-200 1.000000e-200 1.000000e-200 1.000000e-200 1.000000e-200 3.784998e+05 3.784998e+05 3.784998e+05 1.726837e+05 1.726837e+05 1.726837e+05 1.748027e+05 1.247976e+05 1.247976e+05 1.247976e+05 2.843781e+05 2.843781e+05 2.843781e+05 2.962278e+05 1.000000e-200 1.000000e-200 1.000000e-200 1.000000e-200 1.971015e+05 1.971015e+05 1.987486e+05 2.809630e+05 2.809630e+05 2.809630e+05 2.974523e+05 2.974523e+05 1.000000e-200 1.000000e-200 1.000000e-200 1.000000e-200 1.000000e-200 9.260070e+04 9.260070e+04 9.260070e+04 9.018663e+04 9.018663e+04 2.322792e+05 2.322792e+05 1.893379e+05 1.893379e+05 1.893379e+05 1.875851e+05 1.308081e+05 1.308081e+05 1.308081e+05 1.278922e+05 1.275177e+05 2.087442e+05 2.087442e+05 2.087442e+05 1.838412e+05 1.838412e+05 1.841831e+05 3.667679e+05 3.523136e+05 3.523136e+05 1.000000e-200 1.000000e-200 1.000000e-200 1.266994e+05 1.000000e-200 1.000000e-200 1.065400e+05 1.015115e+05 1.015115e+05 1.015115e+05 1.024037e+05 9.273219e+04 1.002975e+05 1.002975e+05 1.002975e+05 1.028790e+05 1.028790e+05 7.777775e+04 7.777775e+04 7.777775e+04 8.141315e+04 4.918506e+04 4.918506e+04 4.918506e+04 4.978082e+04 2.078281e+05 2.041890e+05 1.968434e+05 2.258558e+05 2.258558e+05 1.075469e+05 1.075469e+05 1.075469e+05 1.092444e+05 1.797797e+05 1.797797e+05 1.797797e+05 1.814737e+05 1.814737e+05 1.758787e+05 1.125334e+04 1.125334e+04 1.125334e+04 1.068213e+04 2.147669e+04 2.147669e+04 2.147669e+04 2.612411e+04 3.163504e+04 1.536103e+05 1.536103e+05 1.536103e+05 1.525949e+05 1.000000e-200 1.000000e-200 4.905680e+04 4.905680e+04 4.905680e+04 5.397981e+04 1.000000e-200 1.000000e-200 1.000000e-200 1.000000e-200 2.153177e+05 2.153177e+05 2.153177e+05 2.239399e+05 2.239399e+05 1.000000e-200 1.000000e-200 1.000000e-200 1.000000e-200 2.509833e+05 2.509833e+05 2.509833e+05 2.437799e+05 3.080291e+05 3.080291e+05 3.080291e+05 3.127472e+05 1.000000e-200 1.000000e-200 1.000000e-200 1.326504e+05 1.326504e+05 1.427691e+05 1.427691e+05 1.427691e+05 1.049094e+05 1.049094e+05 1.049094e+05 1.030920e+05 1.000000e-200 1.000000e-200 1.000000e-200 1.000000e-200 1.000000e-200 3.934535e+05 3.934535e+05 3.934535e+05 3.878198e+05 3.878198e+05 1.356100e+05 2.597557e+05 2.597557e+05 2.598201e+05 1.000000e-200 1.000000e-200 1.000000e-200 1.000000e-200 1.000000e-200 1.000000e-200 1.000000e-200 1.000000e-200 3.453895e+05 3.453895e+05 3.424801e+05 2.958526e+05 2.958526e+05 1.000000e-200 1.000000e-200 1.000000e-200 1.000000e-200 2.832055e+05 2.832055e+05 2.832055e+05 2.806946e+05 1.244300