<?xml version="1.0"?>
 <VTKFile type="UnstructuredGrid" version="1.0" byte_order="LittleEndian" header_type="UInt64">
  <UnstructuredGrid>
    <FieldData>
     <DataArray type="Float64" Name="TimeValue" NumberOfTuples="1" format="ascii">
0.0002
     </DataArray>
    </FieldData>
   <Piece NumberOfPoints="3662" NumberOfCells="3444">
    <PointData>
     <DataArray type="Float64" Name="pointP" format="ascii">
1.452750e+05 1.452737e+05 1.452938e+05 1.452200e+05 1.451418e+05 1.450928e+05 1.450115e+05 1.449497e+05 1.448733e+05 1.448136e+05 1.447071e+05 1.445925e+05 1.444429e+05 1.442990e+05 1.441202e+05 1.439999e+05 1.438574e+05 1.436803e+05 1.434690e+05 1.432665e+05 1.430914e+05 1.428362e+05 1.426401e+05 1.424275e+05 1.422276e+05 1.420363e+05 1.417432e+05 1.414846e+05 1.411982e+05 1.408415e+05 1.404880e+05 1.402610e+05 1.399188e+05 1.396676e+05 1.393553e+05 1.389784e+05 1.386314e+05 1.383289e+05 1.378793e+05 1.374593e+05 1.370954e+05 1.367054e+05 1.363427e+05 1.359118e+05 1.355393e+05 1.351183e+05 1.346866e+05 1.342326e+05 1.337745e+05 1.333051e+05 1.328888e+05 1.324098e+05 1.319734e+05 1.313968e+05 1.309043e+05 1.303806e+05 1.299212e+05 1.294687e+05 1.289383e+05 1.284387e+05 1.279516e+05 1.274544e+05 1.268071e+05 1.262945e+05 1.256554e+05 1.251461e+05 1.245244e+05 1.239850e+05 1.233950e+05 1.228723e+05 1.222281e+05 1.216194e+05 1.210196e+05 1.203738e+05 1.198931e+05 1.193259e+05 1.187445e+05 1.181446e+05 1.174936e+05 1.168295e+05 1.162740e+05 1.156760e+05 1.150074e+05 1.144127e+05 1.137975e+05 1.131763e+05 1.124749e+05 1.118333e+05 1.112588e+05 1.106620e+05 1.100487e+05 1.093196e+05 1.087508e+05 1.080012e+05 1.074091e+05 1.067507e+05 1.060532e+05 1.054379e+05 1.048199e+05 1.041868e+05 1.035927e+05 1.029382e+05 1.023297e+05 1.016667e+05 1.010661e+05 1.003395e+05 9.970020e+04 9.904353e+04 9.841011e+04 9.777243e+04 9.719574e+04 9.648868e+04 9.590144e+04 9.527194e+04 9.469695e+04 9.409528e+04 9.340897e+04 9.281948e+04 9.224371e+04 9.169747e+04 9.101135e+04 9.044693e+04 8.975669e+04 8.975669e+04 1.036839e+05 1.059266e+05 1.069678e+05 1.070799e+05 1.073530e+05 1.077772e+05 1.081154e+05 1.081154e+05 1.081604e+05 1.083260e+05 1.084691e+05 1.084691e+05 1.089201e+05 1.089201e+05 1.094871e+05 1.097817e+05 1.099011e+05 1.102917e+05 1.107243e+05 1.118199e+05 1.118199e+05 1.130851e+05 1.130851e+05 1.138059e+05 1.152938e+05 1.156873e+05 1.166322e+05 1.170988e+05 1.184722e+05 1.194325e+05 1.203339e+05 1.217968e+05 1.222701e+05 1.238440e+05 1.254573e+05 1.267269e+05 1.278391e+05 1.278391e+05 1.288789e+05 1.310569e+05 1.310569e+05 1.333273e+05 1.340163e+05 1.340163e+05 1.355202e+05 1.369983e+05 1.369983e+05 1.383466e+05 1.391472e+05 1.403472e+05 1.403472e+05 1.411260e+05 1.423354e+05 1.430415e+05 1.442026e+05 1.445973e+05 1.034921e+05 1.127809e+05 1.127809e+05 1.127809e+05 1.133642e+05 1.096426e+05 1.096426e+05 1.096426e+05 1.103702e+05 1.103702e+05 1.142819e+05 1.142819e+05 1.142819e+05 1.144894e+05 1.141008e+05 1.022113e+05 1.108226e+05 1.108226e+05 1.102684e+05 1.129788e+05 1.129788e+05 1.129788e+05 1.125434e+05 1.121544e+05 1.265622e+05 1.265622e+05 1.265622e+05 1.259871e+05 1.056503e+05 1.056503e+05 1.056503e+05 1.053198e+05 1.049730e+05 1.049730e+05 1.121353e+05 1.121353e+05 1.096820e+05 1.092720e+05 1.034921e+05 1.034921e+05 1.073836e+05 1.073836e+05 1.073836e+05 1.071432e+05 1.066500e+05 1.066500e+05 1.070082e+05 1.108939e+05 1.108939e+05 1.108939e+05 1.109669e+05 1.102970e+05 1.118664e+05 1.118163e+05 1.069304e+05 1.069304e+05 1.069304e+05 1.060807e+05 9.930141e+04 9.709734e+04 9.525387e+04 9.709734e+04 1.231655e+05 1.231655e+05 1.231655e+05 1.277635e+05 1.277635e+05 1.277635e+05 1.266352e+05 9.237682e+04 9.158307e+04 9.237682e+04 9.237682e+04 1.208312e+05 1.208312e+05 1.208312e+05 1.208202e+05 1.314411e+05 1.314411e+05 1.314411e+05 1.310972e+05 1.362283e+05 1.362283e+05 1.362283e+05 1.352358e+05 1.352358e+05 9.552633e+04 9.552633e+04 9.552633e+04 9.514060e+04 1.009678e+05 1.009678e+05 1.009678e+05 1.001337e+05 1.001337e+05 1.410585e+05 1.410585e+05 1.410585e+05 1.414492e+05 1.134366e+05 1.134366e+05 1.134366e+05 1.134979e+05 1.134979e+05 8.938169e+04 8.979052e+04 1.368742e+05 1.368742e+05 1.368742e+05 1.365938e+05 1.396745e+05 1.396745e+05 1.396745e+05 1.402184e+05 1.402184e+05 1.180594e+05 1.180594e+05 1.180594e+05 1.178698e+05 1.382699e+05 1.382699e+05 1.382699e+05 1.378785e+05 9.527194e+04 1.263857e+05 1.263857e+05 1.263857e+05 1.204907e+05 1.204907e+05 1.204907e+05 1.201378e+05 1.148639e+05 1.148639e+05 1.148639e+05 1.146317e+05 1.054379e+05 1.026340e+05 1.026340e+05 1.026340e+05 1.023607e+05 1.108013e+05 1.108013e+05 1.108013e+05 1.108822e+05 1.108822e+05 8.979052e+04 8.979052e+04 8.938169e+04 1.362817e+05 1.362817e+05 1.362817e+05 1.373675e+05 1.373675e+05 1.134047e+05 1.139967e+05 1.139967e+05 1.309192e+05 1.309192e+05 1.309192e+05 1.320277e+05 1.320277e+05 1.296191e+05 1.296191e+05 1.296191e+05 1.299977e+05 9.597111e+04 9.505512e+04 9.597111e+04 9.597111e+04 9.647940e+04 1.102277e+05 1.102277e+05 1.102277e+05 1.109554e+05 1.120347e+05 1.131999e+05 1.131999e+05 1.050088e+05 1.050088e+05 1.034960e+05 1.034960e+05 1.148169e+05 1.148169e+05 1.148169e+05 1.163527e+05 1.163527e+05 1.042868e+05 1.042868e+05 1.042868e+05 1.042904e+05 1.036376e+05 1.086124e+05 1.070646e+05 1.213272e+05 1.213272e+05 1.213272e+05 1.208523e+05 1.254563e+05 1.254563e+05 1.254563e+05 1.247564e+05 1.156111e+05 1.156111e+05 1.156111e+05 1.295589e+05 1.295589e+05 1.295589e+05 1.050137e+05 1.050137e+05 1.050137e+05 1.334615e+05 1.334615e+05 1.334615e+05 9.597976e+04 9.597976e+04 9.597976e+04 9.593648e+04 9.525472e+04 1.056125e+05 1.056125e+05 1.056125e+05 9.729289e+04 9.729289e+04 9.743643e+04 1.178414e+05 1.178414e+05 1.178414e+05 1.185740e+05 1.080775e+05 1.080775e+05 1.080775e+05 1.079874e+05 1.041300e+05 1.041300e+05 1.397460e+05 1.397460e+05 1.397460e+05 1.391029e+05 9.224018e+04 9.224018e+04 9.224018e+04 9.226214e+04 9.889619e+04 9.889619e+04 9.889619e+04 9.905717e+04 1.364090e+05 1.364090e+05 1.364090e+05 1.221548e+05 1.221548e+05 1.221548e+05 1.223693e+05 1.094648e+05 1.094648e+05 1.094648e+05 1.095495e+05 1.089832e+05 1.089832e+05 1.089832e+05 1.087855e+05 1.146441e+05 1.146441e+05 1.146441e+05 1.151018e+05 1.432681e+05 1.432681e+05 1.432681e+05 1.412898e+05 1.412898e+05 1.412898e+05 1.412357e+05 1.395717e+05 1.395717e+05 1.395717e+05 1.392035e+05 1.371032e+05 1.371032e+05 1.367959e+05 1.217187e+05 1.217187e+05 1.216363e+05 9.936055e+04 9.936055e+04 9.945964e+04 1.119768e+05 1.119768e+05 1.119768e+05 1.122567e+05 1.170972e+05 1.170972e+05 1.170972e+05 1.411700e+05 1.411700e+05 1.410173e+05 1.193802e+05 1.193802e+05 1.190085e+05 1.126805e+05 1.383141e+05 1.382169e+05 1.017613e+05 1.017613e+05 1.013493e+05 1.431739e+05 1.431739e+05 1.431739e+05 1.434379e+05 1.164702e+05 1.164702e+05 1.346686e+05 1.346686e+05 1.346686e+05 1.437985e+05 1.437985e+05 1.437985e+05 1.436241e+05 1.436241e+05 1.421061e+05 1.421061e+05 1.421061e+05 1.425072e+05 1.400618e+05 1.400618e+05 1.400618e+05 1.397624e+05 1.397624e+05 1.044869e+05 1.044869e+05 1.044869e+05 1.039473e+05 1.039473e+05 1.401918e+05 1.401918e+05 1.408389e+05 1.408389e+05 1.423211e+05 1.423211e+05 1.423211e+05 1.363574e+05 1.363574e+05 1.363574e+05 1.371226e+05 1.020084e+05 1.020084e+05 1.020084e+05 1.019541e+05 1.019541e+05 9.105910e+04 9.105910e+04 9.105910e+04 9.187654e+04 9.187654e+04 1.109155e+05 1.109155e+05 1.109155e+05 1.122806e+05 1.122806e+05 1.231867e+05 1.231867e+05 1.231867e+05 1.238564e+05 1.238564e+05 1.286662e+05 1.286662e+05 1.286662e+05 1.299215e+05 1.305802e+05 1.305802e+05 1.339118e+05 1.339118e+05 1.339118e+05 1.326184e+05 1.326184e+05 9.899109e+04 9.899109e+04 9.899109e+04 9.955643e+04 9.955643e+04 1.078766e+05 1.078766e+05 1.078766e+05 1.095126e+05 1.095126e+05 1.082720e+05 1.082720e+05 1.066661e+05 1.066661e+05 1.177140e+05 1.177140e+05 1.190621e+05 1.190621e+05 1.085496e+05 1.068516e+05 1.068516e+05 1.163335e+05 1.163335e+05 1.163335e+05 1.167103e+05 1.167103e+05 1.137916e+05 1.137916e+05 1.053367e+05 1.053367e+05 1.053367e+05 1.056163e+05 1.117507e+05 1.009871e+05 1.003887e+05 1.078885e+05 1.078885e+05 1.078885e+05 1.081279e+05 1.081279e+05 1.000626e+05 1.000626e+05 9.928471e+04 9.894053e+04 9.934799e+04 1.317112e+05 1.317112e+05 1.317112e+05 1.308972e+05 1.355127e+05 1.355127e+05 1.348831e+05 1.098234e+05 1.098234e+05 1.098234e+05 9.310979e+04 9.310979e+04 9.310979e+04 9.279115e+04 9.261983e+04 1.416165e+05 1.416165e+05 1.416165e+05 1.153892e+05 9.997175e+04 9.447012e+04 9.447012e+04 1.389602e+05 1.389602e+05 1.245244e+05 1.247106e+05 1.247106e+05 1.247106e+05 1.284410e+05 1.284410e+05 1.284410e+05 1.281628e+05 1.452938e+05 1.449091e+05 1.449091e+05 1.441979e+05 1.441979e+05 1.441979e+05 1.443428e+05 1.049635e+05 1.049635e+05 1.046245e+05 1.067507e+05 1.448660e+05 1.448660e+05 1.416794e+05 1.416794e+05 1.090134e+05 1.090134e+05 9.733620e+04 9.733620e+04 9.733620e+04 1.439236e+05 1.439236e+05 1.440762e+05 8.950536e+04 8.950536e+04 9.007102e+04 1.403926e+05 1.435619e+05 1.430467e+05 1.430467e+05 1.431247e+05 1.235476e+05 1.235476e+05 1.235476e+05 1.235081e+05 1.324098e+05 1.324855e+05 1.452200e+05 1.446828e+05 1.360090e+05 1.360090e+05 1.332932e+05 1.332932e+05 1.332932e+05 1.333109e+05 1.081664e+05 1.081664e+05 1.076498e+05 1.076498e+05 1.205229e+05 1.426767e+05 1.426767e+05 1.422045e+05 1.272077e+05 1.272077e+05 1.272077e+05 9.648868e+04 1.449497e+05 1.441831e+05 1.302907e+05 1.302907e+05 1.302907e+05 1.300154e+05 9.633085e+04 9.633085e+04 9.619739e+04 1.295523e+05 1.295523e+05 1.295493e+05 1.009599e+05 1.009599e+05 1.107863e+05 1.107863e+05 1.445581e+05 1.378793e+05 1.378113e+05 1.288574e+05 1.437367e+05 1.437367e+05 1.342693e+05 9.873077e+04 9.821754e+04 9.821754e+04 1.062320e+05 1.062320e+05 1.058950e+05 1.058950e+05 1.421027e+05 1.421027e+05 1.252228e+05 1.439257e+05 1.224891e+05 1.224891e+05 1.227790e+05 1.310242e+05 1.310242e+05 1.310242e+05 1.447453e+05 1.447453e+05 1.148763e+05 9.419283e+04 9.419283e+04 1.321669e+05 1.317321e+05 1.351609e+05 1.198380e+05 9.044693e+04 9.101135e+04 1.427730e+05 1.278732e+05 9.165107e+04 9.165107e+04 9.165107e+04 9.097669e+04 1.414510e+05 9.001225e+04 9.867819e+04 9.867819e+04 1.342326e+05 1.325651e+05 1.032434e+05 1.032434e+05 1.430216e+05 1.430216e+05 9.323967e+04 9.323967e+04 1.065358e+05 1.262401e+05 1.262401e+05 1.012908e+05 1.065636e+05 1.142505e+05 1.140306e+05 1.253144e+05 1.253144e+05 1.245691e+05 1.245691e+05 1.001313e+05 1.141725e+05 1.442926e+05 9.144355e+04 1.133265e+05 1.336756e+05 1.389409e+05 9.098666e+04 1.024988e+05 1.031472e+05 1.058967e+05 1.328581e+05 1.326292e+05 1.444638e+05 1.444638e+05 1.254571e+05 1.248153e+05 1.367126e+05 1.043877e+05 1.394370e+05 1.394370e+05 1.352369e+05 1.352369e+05 1.352369e+05 1.118147e+05 1.243739e+05 9.723298e+04 1.405646e+05 1.408379e+05 1.408907e+05 1.408907e+05 1.408907e+05 1.312031e+05 1.312031e+05 1.312031e+05 1.314535e+05 1.441018e+05 1.237022e+05 1.235954e+05 1.129125e+05 1.129125e+05 1.129125e+05 1.341123e+05 1.341123e+05 1.341123e+05 1.347159e+05 1.290356e+05 1.290356e+05 1.295431e+05 1.209216e+05 1.204683e+05 1.000488e+05 1.002800e+05 9.833098e+04 9.833098e+04 9.802972e+04 9.397036e+04 9.397036e+04 9.374549e+04 9.374549e+04 1.048482e+05 1.432829e+05 1.104779e+05 1.441772e+05 1.437851e+05 1.432960e+05 1.432960e+05 1.428837e+05 1.428837e+05 1.352648e+05 1.364195e+05 1.187654e+05 1.415974e+05 1.415974e+05 1.352803e+05 1.352803e+05 1.401748e+05 1.161288e+05 1.161288e+05 1.161288e+05 1.379703e+05 1.159043e+05 9.517435e+04 9.517435e+04 9.517435e+04 9.537257e+04 9.537257e+04 1.301327e+05 1.302637e+05 1.434800e+05 1.434800e+05 1.440279e+05 9.255844e+04 9.296841e+04 1.282485e+05 1.282485e+05 1.254172e+05 1.317474e+05 1.418074e+05 9.675756e+04 9.675756e+04 9.675756e+04 9.748276e+04 1.436840e+05 1.436840e+05 1.434229e+05 1.430649e+05 1.423208e+05 1.423208e+05 1.068758e+05 1.068758e+05 1.068758e+05 1.081420e+05 9.906973e+04 1.083053e+05 1.076860e+05 1.076860e+05 1.220572e+05 1.186968e+05 1.186968e+05 1.195170e+05 1.361020e+05 1.350753e+05 1.350753e+05 1.419433e+05 1.419433e+05 8.978086e+04 1.231005e+05 1.231005e+05 1.121873e+05 1.112957e+05 1.112957e+05 1.171605e+05 1.173064e+05 1.230603e+05 1.403732e+05 9.854583e+04 9.854583e+04 9.854583e+04 1.033350e+05 1.417082e+05 1.413935e+05 1.158238e+05 1.158238e+05 1.401402e+05 1.401402e+05 1.401402e+05 1.298963e+05 1.298963e+05 1.298963e+05 1.249282e+05 1.056083e+05 1.287435e+05 1.287435e+05 1.287435e+05 9.339222e+04 1.432716e+05 1.037003e+05 1.047234e+05 1.220352e+05 1.220799e+05 1.220799e+05 1.273044e+05 1.200440e+05 1.422540e+05 1.424821e+05 1.424821e+05 1.184082e+05 1.390429e+05 1.390429e+05 1.388710e+05 1.384240e+05 1.401675e+05 1.394659e+05 1.394659e+05 1.378953e+05 1.279692e+05 1.279692e+05 1.275570e+05 1.275570e+05 1.387871e+05 1.387871e+05 1.378793e+05 1.378793e+05 1.170733e+05 1.426116e+05 1.418444e+05 1.206070e+05 1.206070e+05 1.336604e+05 9.107835e+04 1.347274e+05 1.372457e+05 1.328716e+05 1.328716e+05 1.127641e+05 9.937736e+04 1.300561e+05 1.396438e+05 1.398844e+05 1.398844e+05 9.808280e+04 1.304266e+05 1.304266e+05 1.311457e+05 1.163158e+05 1.163158e+05 1.163158e+05 1.091719e+05 1.263368e+05 9.585181e+04 9.585181e+04 9.605234e+04 1.339157e+05 1.339157e+05 1.295353e+05 1.405647e+05 1.405647e+05 1.405647e+05 1.233429e+05 1.413779e+05 1.251210e+05 1.321906e+05 1.316886e+05 1.197163e+05 1.191932e+05 1.191932e+05 1.065965e+05 1.060494e+05 1.060494e+05 9.416181e+04 9.366248e+04 1.051769e+05 1.044701e+05 1.044701e+05 1.405172e+05 1.405172e+05 1.405172e+05 1.387730e+05 1.380175e+05 1.380175e+05 1.100689e+05 1.409082e+05 1.325318e+05 1.210292e+05 1.210292e+05 9.006922e+04 9.006922e+04 1.013726e+05 1.418955e+05 1.418955e+05 1.118737e+05 1.350562e+05 1.340389e+05 1.340389e+05 1.243166e+05 1.243166e+05 1.334541e+05 1.334541e+05 1.191390e+05 1.177526e+05 1.027989e+05 1.309704e+05 1.410682e+05 1.410682e+05 1.383579e+05 1.288288e+05 1.288288e+05 1.274754e+05 1.274754e+05 8.989275e+04 1.179367e+05 1.070753e+05 1.076598e+05 1.219674e+05 1.213095e+05 1.011217e+05 1.264435e+05 1.264435e+05 1.264435e+05 1.391653e+05 1.391653e+05 1.400329e+05 1.024814e+05 1.024814e+05 1.024814e+05 9.805660e+04 9.805660e+04 1.341919e+05 1.341919e+05 1.351068e+05 1.395745e+05 1.392260e+05 1.157874e+05 1.369686e+05 1.369686e+05 1.364380e+05 1.203468e+05 1.380568e+05 1.380568e+05 1.252328e+05 1.060676e+05 1.060676e+05 1.060676e+05 1.047375e+05 1.296500e+05 9.161263e+04 9.285760e+04 9.428385e+04 9.638483e+04 1.290286e+05 1.280342e+05 1.094345e+05 1.404796e+05 1.383650e+05 1.383650e+05 1.383650e+05 1.386333e+05 1.083926e+05 1.390875e+05 1.350915e+05 1.353641e+05 1.255602e+05 1.255602e+05 1.255602e+05 1.148602e+05 1.148602e+05 1.148602e+05 1.172294e+05 1.172294e+05 1.375983e+05 1.369642e+05 1.369642e+05 1.369642e+05 1.171340e+05 1.323842e+05 1.323842e+05 1.323842e+05 1.192674e+05 1.269288e+05 1.269288e+05 1.269288e+05 1.006930e+05 1.006930e+05 1.006930e+05 9.567743e+04 1.072545e+05 1.353379e+05 1.353379e+05 1.321049e+05 1.385350e+05 1.120985e+05 1.104515e+05 1.104515e+05 1.104515e+05 1.222614e+05 1.344907e+05 1.339844e+05 1.019591e+05 1.010206e+05 1.197039e+05 9.274399e+04 1.358974e+05 1.358974e+05 1.371890e+05 1.370495e+05 1.298038e+05 1.180457e+05 1.360207e+05 1.099602e+05 1.099602e+05 1.162178e+05 1.211529e+05 1.143740e+05 1.143740e+05 1.138480e+05 1.122890e+05 9.892062e+04 9.892062e+04 1.255001e+05 1.255001e+05 1.264355e+05 1.280554e+05 1.345618e+05 1.341223e+05 1.183176e+05 1.195004e+05 1.297680e+05 1.379388e+05 1.372765e+05 1.002587e+05 9.482427e+04 9.482427e+04 9.482427e+04 1.347440e+05 1.347440e+05 1.236913e+05 1.236913e+05 1.228153e+05 1.331828e+05 1.289469e+05 1.278624e+05 1.278624e+05 1.059761e+05 1.059761e+05 1.071554e+05 1.034813e+05 1.034813e+05 1.155346e+05 1.027772e+05 1.015990e+05 1.109495e+05 1.083884e+05 1.118104e+05 1.133307e+05 1.286841e+05 1.239779e+05 1.239779e+05 1.239779e+05 1.260236e+05 1.334732e+05 1.358868e+05 1.177775e+05 1.334025e+05 1.230859e+05 1.230859e+05 1.247034e+05 1.204985e+05 1.204985e+05 1.195504e+05 1.195504e+05 1.132240e+05 1.138652e+05 9.540786e+04 9.598966e+04 1.182398e+05 1.050348e+05 1.222803e+05 1.222803e+05 1.154850e+05 1.154850e+05 1.154850e+05 1.141658e+05 1.325721e+05 1.316946e+05 1.162823e+05 1.006796e+05 1.110762e+05 1.258616e+05 1.177598e+05 1.177598e+05 1.224718e+05 1.224718e+05 1.032178e+05 1.032178e+05 1.204415e+05 1.321014e+05 1.292409e+05 1.292409e+05 1.277889e+05 9.711979e+04 1.221938e+05 1.308233e+05 1.117167e+05 1.117167e+05 1.106108e+05 1.157412e+05 1.167658e+05 1.282143e+05 1.282143e+05 1.119861e+05 1.119861e+05 1.053476e+05 1.036020e+05 1.036020e+05 1.140827e+05 1.259095e+05 1.012743e+05 1.206970e+05 1.244887e+05 1.273380e+05 9.746264e+04 1.048689e+05 1.217054e+05 1.217054e+05 1.243763e+05 9.856318e+04 9.647940e+04 1.021540e+05 1.021540e+05 1.021540e+05 1.038374e+05 1.141358e+05 1.141358e+05 1.239450e+05 1.239450e+05 1.219856e+05 1.219856e+05 1.158418e+05 9.982219e+04 9.888797e+04 1.179825e+05 1.179825e+05 1.179825e+05 1.175913e+05 1.097383e+05 1.097383e+05 1.180300e+05 1.180300e+05 1.143421e+05 1.143421e+05 1.138392e+05 9.645473e+04 9.645473e+04 9.645473e+04 9.528257e+04 1.127635e+05 1.110273e+05 1.110273e+05 1.007966e+05 1.032556e+05 9.709734e+04 9.804425e+04 9.957507e+04 9.957507e+04 1.113687e+05 1.193897e+05 1.059928e+05 1.062935e+05 1.112432e+05 1.046777e+05 1.046777e+05 1.149598e+05 1.145123e+05 1.199753e+05 1.017113e+05 1.017113e+05 1.000933e+05 1.177089e+05 1.177089e+05 1.153165e+05 1.015069e+05 1.003286e+05 1.003286e+05 1.003286e+05 9.887229e+04 1.137989e+05 9.953578e+04 1.029053e+05 1.091186e+05 9.953578e+04 1.041354e+05 1.009812e+05 1.009812e+05 1.078351e+05 1.072538e+05 1.035689e+05 1.029656e+05 1.073809e+05 1.073809e+05 1.073809e+05 1.031057e+05 1.083175e+05 1.083175e+05 1.083175e+05 1.064895e+05 1.064895e+05 1.053855e+05 1.038218e+05 1.072120e+05 1.047521e+05 1.042918e+05 1.063735e+05 1.051198e+05 1.057979e+05 1.071121e+05 1.071121e+05 1.036728e+05 1.036728e+05 1.044403e+05 1.072866e+05 1.072866e+05 1.072866e+05 1.076197e+05 1.076197e+05 1.062410e+05 1.062410e+05 1.062410e+05 1.255144e+05 1.264335e+05 1.264335e+05 1.264335e+05 1.022113e+05 1.022113e+05 1.267111e+05 1.267111e+05 1.267111e+05 1.277515e+05 1.277515e+05 1.041815e+05 1.029881e+05 1.248422e+05 1.248422e+05 1.239689e+05 1.021755e+05 1.284206e+05 1.277267e+05 1.279535e+05 1.009871e+05 1.026211e+05 1.029494e+05 1.082938e+05 1.082938e+05 1.085469e+05 1.402920e+05 1.165888e+05 1.165888e+05 1.165888e+05 1.146297e+05 1.219458e+05 1.219458e+05 1.219458e+05 1.225293e+05 1.218447e+05 1.218447e+05 1.350558e+05 1.181386e+05 1.181386e+05 1.181386e+05 1.179729e+05 1.103164e+05 1.391207e+05 1.391207e+05 1.391207e+05 1.216611e+05 1.335923e+05 1.335923e+05 1.302707e+05 1.302707e+05 1.302707e+05 1.200037e+05 1.200037e+05 1.200037e+05 1.230856e+05 1.201855e+05 1.201855e+05 1.205254e+05 1.246518e+05 1.162902e+05 1.205504e+05 1.194277e+05 1.187622e+05 1.154663e+05 1.140567e+05 1.173535e+05 1.129503e+05 1.113838e+05 1.127457e+05 1.127457e+05 1.108492e+05 1.108492e+05 1.108492e+05 1.081154e+05 1.370329e+05 1.239732e+05 1.239732e+05 1.203144e+05 1.186040e+05 1.158003e+05 1.158003e+05 1.328982e+05 1.328982e+05 1.287821e+05 1.287821e+05 1.248697e+05 1.229829e+05 1.174311e+05 1.140351e+05 1.109899e+05 1.109899e+05 1.084644e+05 1.093132e+05 1.367680e+05 1.367680e+05 1.152743e+05 1.114538e+05 1.114538e+05 1.129683e+05 1.116093e+05 1.106007e+05 1.095185e+05 1.095185e+05 1.095185e+05 1.097143e+05 1.097143e+05 1.091960e+05 1.089672e+05 1.089672e+05 1.089672e+05 1.111542e+05 1.111542e+05 1.029836e+05 1.086009e+05 1.086009e+05 1.088151e+05 1.084665e+05 1.084665e+05 1.034309e+05 1.045920e+05 1.035023e+05 1.083194e+05 1.083194e+05 1.083194e+05 1.080734e+05 1.092109e+05 1.059530e+05 1.082043e+05 1.275434e+05 1.075425e+05 1.069991e+05 1.078453e+05 1.077772e+05 1.288556e+05 1.318173e+05 1.318173e+05 1.337684e+05 1.337684e+05 1.358959e+05 1.358959e+05 1.358959e+05 1.374742e+05 1.380915e+05 1.380915e+05 1.380915e+05 1.415407e+05 1.081843e+05 1.085557e+05 1.085557e+05 1.085557e+05 1.089463e+05 1.095039e+05 1.098507e+05 1.149693e+05 1.093483e+05 1.099574e+05 1.102311e+05 1.100817e+05 1.108281e+05 1.105460e+05 1.098202e+05 1.086594e+05 1.093098e+05 1.087721e+05 1.087721e+05 1.083558e+05 1.083558e+05 1.093475e+05 1.087458e+05 1.082034e+05 1.080414e+05 1.292934e+05 1.308485e+05 1.371591e+05 1.430556e+05 1.452750e+05 1.452540e+05 1.452237e+05 1.452401e+05 1.451654e+05 1.451326e+05 1.450609e+05 1.449813e+05 1.449056e+05 1.448307e+05 1.447200e+05 1.059270e+05 1.059270e+05 1.070815e+05 1.070815e+05 1.073544e+05 1.077715e+05 1.080567e+05 1.080567e+05 1.080567e+05 1.080816e+05 1.076745e+05 1.076745e+05 1.070012e+05 1.070012e+05 1.070012e+05 1.107375e+05 1.107375e+05 1.107375e+05 1.110753e+05 1.110753e+05 1.067747e+05 1.067747e+05 1.067747e+05 1.071517e+05 1.059270e+05 1.058997e+05 1.058997e+05 1.080186e+05 1.090147e+05 1.090147e+05 1.440512e+05 1.440512e+05 1.440512e+05 1.446651e+05 1.446651e+05 1.069663e+05 1.075528e+05 1.075528e+05 1.443371e+05 1.443371e+05 1.440041e+05 1.340346e+05 1.340346e+05 1.340346e+05 1.276481e+05 1.276481e+05 1.276481e+05 1.259923e+05 1.259923e+05 1.084272e+05 1.407562e+05 1.407562e+05 1.407562e+05 1.403481e+05 1.447815e+05 1.447815e+05 1.447815e+05 1.445642e+05 1.441375e+05 1.427006e+05 1.427006e+05 1.427006e+05 1.448007e+05 1.440881e+05 1.440881e+05 1.440881e+05 1.443294e+05 1.307740e+05 1.324642e+05 1.307740e+05 1.307740e+05 1.117437e+05 1.117437e+05 1.056924e+05 1.349305e+05 1.349305e+05 1.448079e+05 1.448307e+05 1.447094e+05 1.447094e+05 1.443294e+05 1.430415e+05 1.423354e+05 1.441310e+05 1.438067e+05 1.431186e+05 1.431186e+05 1.431533e+05 1.425976e+05 1.432493e+05 1.431533e+05 1.427303e+05 1.415661e+05 1.415661e+05 1.418281e+05 1.418281e+05 1.422420e+05 1.413144e+05 1.412197e+05 1.406443e+05 1.406443e+05 1.400339e+05 1.406050e+05 1.391090e+05 1.374246e+05 1.374246e+05 1.324642e+05 1.287219e+05 1.287219e+05 1.270596e+05 1.270596e+05 1.256507e+05 1.245554e+05 1.209391e+05 1.097248e+05 1.056924e+05 1.056924e+05 1.088044e+05 1.088044e+05 1.088044e+05 1.086688e+05 1.074712e+05 1.091134e+05 1.091134e+05 1.091134e+05 1.090537e+05 1.102139e+05 1.102139e+05 1.102139e+05 1.100514e+05 1.097817e+05 1.136824e+05 1.136824e+05 1.136824e+05 1.142433e+05 1.182385e+05 1.182385e+05 1.182385e+05 1.180111e+05 1.171404e+05 1.145438e+05 1.145438e+05 1.139990e+05 1.231420e+05 1.231420e+05 1.231420e+05 1.238440e+05 1.238440e+05 1.217087e+05 1.217087e+05 1.217087e+05 1.112252e+05 1.112252e+05 1.213696e+05 1.213696e+05 1.213696e+05 1.207232e+05 1.207232e+05 1.305330e+05 1.305330e+05 1.305330e+05 1.265658e+05 1.265658e+05 1.265658e+05 1.188515e+05 1.188515e+05 1.188515e+05 1.100025e+05 1.261899e+05 1.255100e+05 1.210934e+05 1.203339e+05 1.302739e+05 1.271966e+05 1.271966e+05 1.177230e+05 1.177230e+05 1.207906e+05 1.195408e+05 1.243538e+05 1.243538e+05 1.243538e+05 1.303634e+05 1.349305e+05 1.210782e+05 1.161884e+05 1.161884e+05 1.161884e+05 1.237959e+05 1.194751e+05 1.163724e+05 1.147210e+05 1.131259e+05 1.175581e+05 1.131318e+05 1.126572e+05 1.123737e+05 1.123737e+05 1.080794e+05 1.355202e+05 1.355202e+05 1.259041e+05 1.156873e+05 1.156873e+05 1.238210e+05 1.386155e+05 1.139781e+05 1.139781e+05 1.116087e+05 1.116087e+05 1.116087e+05 1.221439e+05 1.274470e+05 1.118460e+05 1.135623e+05 1.117285e+05 1.107495e+05 1.107092e+05 1.107092e+05 1.107092e+05 1.098211e+05 1.098211e+05 1.102401e+05 1.101062e+05 1.101062e+05 1.094366e+05 1.093472e+05 1.084272e+05 1.089652e+05 1.089652e+05 1.079503e+05 1.082375e+05 1.268180e+05 1.341995e+05 1.341995e+05 1.376575e+05 1.376575e+05 1.313337e+05 1.075275e+05 1.166322e+05 1.253557e+05 1.278391e+05 1.283945e+05 1.303362e+05 1.303362e+05 1.325424e+05 1.325424e+05 1.325424e+05 1.344275e+05 1.358986e+05 1.369983e+05 1.383466e+05 1.383466e+05 1.384265e+05 1.419957e+05 1.118199e+05 1.130851e+05 1.296948e+05 1.391472e+05 1.138059e+05 1.146567e+05 1.115044e+05 1.107243e+05 1.121013e+05 1.108729e+05 1.094871e+05 1.129238e+05 1.096523e+05 1.096523e+05 1.092980e+05 1.092254e+05 1.084691e+05 1.084432e+05 1.084432e+05 1.083260e+05 1.086991e+05 1.087532e+05 1.284231e+05 1.316525e+05 1.352497e+05 1.396393e+05 1.352532e+05 1.365911e+05 1.320668e+05 1.390085e+05 1.365168e+05 1.082205e+05 1.070815e+05 1.452750e+05 1.452737e+05 1.452938e+05 1.452200e+05 1.451418e+05 1.450928e+05 1.450115e+05 1.449497e+05 1.448733e+05 1.448136e+05 1.447071e+05 1.445925e+05 1.444429e+05 1.442990e+05 1.441202e+05 1.439999e+05 1.438574e+05 1.436803e+05 1.434690e+05 1.432665e+05 1.430914e+05 1.428362e+05 1.426401e+05 1.424275e+05 1.422276e+05 1.420363e+05 1.417432e+05 1.414846e+05 1.411982e+05 1.408415e+05 1.404880e+05 1.402610e+05 1.399188e+05 1.396676e+05 1.393553e+05 1.389784e+05 1.386314e+05 1.383289e+05 1.378793e+05 1.374593e+05 1.370954e+05 1.367054e+05 1.363427e+05 1.359118e+05 1.355393e+05 1.351183e+05 1.346866e+05 1.342326e+05 1.337745e+05 1.333051e+05 1.328888e+05 1.324098e+05 1.319734e+05 1.313968e+05 1.309043e+05 1.303806e+05 1.299212e+05 1.294687e+05 1.289383e+05 1.284387e+05 1.279516e+05 1.274544e+05 1.268071e+05 1.262945e+05 1.256554e+05 1.251461e+05 1.245244e+05 1.239850e+05 1.233950e+05 1.228723e+05 1.222281e+05 1.216194e+05 1.210196e+05 1.203738e+05 1.198931e+05 1.193259e+05 1.187445e+05 1.181446e+05 1.174936e+05 1.168295e+05 1.162740e+05 1.156760e+05 1.150074e+05 1.144127e+05 1.137975e+05 1.131763e+05 1.124749e+05 1.118333e+05 1.112588e+05 1.106620e+05 1.100487e+05 1.093196e+05 1.087508e+05 1.080012e+05 1.074091e+05 1.067507e+05 1.060532e+05 1.054379e+05 1.048199e+05 1.041868e+05 1.035927e+05 1.029382e+05 1.023297e+05 1.016667e+05 1.010661e+05 1.003395e+05 9.970020e+04 9.904353e+04 9.841011e+04 9.777243e+04 9.719574e+04 9.648868e+04 9.590144e+04 9.527194e+04 9.469695e+04 9.409528e+04 9.340897e+04 9.281948e+04 9.224371e+04 9.169747e+04 9.101135e+04 9.044693e+04 8.975669e+04 8.975669e+04 1.036839e+05 1.036839e+05 1.068157e+05 1.070799e+05 1.073530e+05 1.077772e+05 1.081154e+05 1.081154e+05 1.081604e+05 1.083260e+05 1.084691e+05 1.084691e+05 1.089201e+05 1.089201e+05 1.094871e+05 1.097817e+05 1.099011e+05 1.102917e+05 1.107243e+05 1.118199e+05 1.118199e+05 1.130851e+05 1.130851e+05 1.138059e+05 1.152938e+05 1.156873e+05 1.166322e+05 1.170988e+05 1.184722e+05 1.194325e+05 1.203339e+05 1.217968e+05 1.222701e+05 1.238440e+05 1.254573e+05 1.267269e+05 1.278391e+05 1.278391e+05 1.288789e+05 1.310569e+05 1.310569e+05 1.333273e+05 1.340163e+05 1.340163e+05 1.355202e+05 1.369983e+05 1.369983e+05 1.383466e+05 1.391472e+05 1.403472e+05 1.403472e+05 1.411260e+05 1.423354e+05 1.430415e+05 1.442026e+05 1.445973e+05 1.034921e+05 1.127809e+05 1.127809e+05 1.127809e+05 1.133642e+05 1.096426e+05 1.096426e+05 1.096426e+05 1.103702e+05 1.103702e+05 1.142819e+05 1.142819e+05 1.142819e+05 1.144894e+05 1.141008e+05 1.022113e+05 1.108226e+05 1.108226e+05 1.102684e+05 1.129788e+05 1.129788e+05 1.129788e+05 1.125434e+05 1.121544e+05 1.265622e+05 1.265622e+05 1.265622e+05 1.259871e+05 1.056503e+05 1.056503e+05 1.056503e+05 1.053198e+05 1.049730e+05 1.049730e+05 1.121353e+05 1.121353e+05 1.096820e+05 1.092720e+05 1.034921e+05 1.034921e+05 1.073836e+05 1.073836e+05 1.073836e+05 1.071432e+05 1.066500e+05 1.066500e+05 1.070082e+05 1.108939e+05 1.108939e+05 1.108939e+05 1.109669e+05 1.102970e+05 1.118664e+05 1.118163e+05 1.069304e+05 1.069304e+05 1.069304e+05 1.060807e+05 9.930141e+04 9.709734e+04 9.525387e+04 9.709734e+04 1.231655e+05 1.231655e+05 1.231655e+05 1.277635e+05 1.277635e+05 1.277635e+05 1.266352e+05 9.237682e+04 9.158307e+04 9.237682e+04 9.237682e+04 1.208312e+05 1.208312e+05 1.208312e+05 1.208202e+05 1.314411e+05 1.314411e+05 1.314411e+05 1.310972e+05 1.362283e+05 1.362283e+05 1.362283e+05 1.352358e+05 1.352358e+05 9.552633e+04 9.552633e+04 9.552633e+04 9.514060e+04 1.009678e+05 1.009678e+05 1.009678e+05 1.001337e+05 1.001337e+05 1.410585e+05 1.410585e+05 1.410585e+05 1.414492e+05 1.134366e+05 1.134366e+05 1.134366e+05 1.134979e+05 1.134979e+05 8.938169e+04 8.979052e+04 1.368742e+05 1.368742e+05 1.368742e+05 1.365938e+05 1.396745e+05 1.396745e+05 1.396745e+05 1.402184e+05 1.402184e+05 1.180594e+05 1.180594e+05 1.180594e+05 1.178698e+05 1.382699e+05 1.382699e+05 1.382699e+05 1.378785e+05 9.527194e+04 1.263857e+05 1.263857e+05 1.263857e+05 1.204907e+05 1.204907e+05 1.204907e+05 1.201378e+05 1.148639e+05 1.148639e+05 1.148639e+05 1.146317e+05 1.054379e+05 1.026340e+05 1.026340e+05 1.026340e+05 1.023607e+05 1.108013e+05 1.108013e+05 1.108013e+05 1.108822e+05 1.108822e+05 8.979052e+04 8.979052e+04 8.938169e+04 1.362817e+05 1.362817e+05 1.362817e+05 1.373675e+05 1.373675e+05 1.134047e+05 1.139967e+05 1.139967e+05 1.309192e+05 1.309192e+05 1.309192e+05 1.320277e+05 1.320277e+05 1.296191e+05 1.296191e+05 1.296191e+05 1.299977e+05 9.597111e+04 9.505512e+04 9.597111e+04 9.597111e+04 9.647940e+04 1.102277e+05 1.102277e+05 1.102277e+05 1.109554e+05 1.120347e+05 1.131999e+05 1.131999e+05 1.050088e+05 1.050088e+05 1.034960e+05 1.034960e+05 1.148169e+05 1.148169e+05 1.148169e+05 1.163527e+05 1.163527e+05 1.042868e+05 1.042868e+05 1.042868e+05 1.042904e+05 1.036376e+05 1.086124e+05 1.070646e+05 1.213272e+05 1.213272e+05 1.213272e+05 1.208523e+05 1.254563e+05 1.254563e+05 1.254563e+05 1.247564e+05 1.156111e+05 1.156111e+05 1.156111e+05 1.295589e+05 1.295589e+05 1.295589e+05 1.050137e+05 1.050137e+05 1.050137e+05 1.334615e+05 1.334615e+05 1.334615e+05 9.597976e+04 9.597976e+04 9.597976e+04 9.593648e+04 9.525472e+04 1.056125e+05 1.056125e+05 1.056125e+05 9.729289e+04 9.729289e+04 9.743643e+04 1.178414e+05 1.178414e+05 1.178414e+05 1.185740e+05 1.080775e+05 1.080775e+05 1.080775e+05 1.079874e+05 1.041300e+05 1.041300e+05 1.397460e+05 1.397460e+05 1.397460e+05 1.391029e+05 9.224018e+04 9.224018e+04 9.224018e+04 9.226214e+04 9.889619e+04 9.889619e+04 9.889619e+04 9.905717e+04 1.364090e+05 1.364090e+05 1.364090e+05 1.221548e+05 1.221548e+05 1.221548e+05 1.223693e+05 1.094648e+05 1.094648e+05 1.094648e+05 1.095495e+05 1.089832e+05 1.089832e+05 1.089832e+05 1.087855e+05 1.146441e+05 1.146441e+05 1.146441e+05 1.151018e+05 1