<?xml version="1.0"?>
 <VTKFile type="UnstructuredGrid" version="1.0" byte_order="LittleEndian" header_type="UInt64">
  <UnstructuredGrid>
    <FieldData>
     <DataArray type="Float64" Name="TimeValue" NumberOfTuples="1" format="ascii">
0.00026
     </DataArray>
    </FieldData>
   <Piece NumberOfPoints="3632" NumberOfCells="3379">
    <PointData>
     <DataArray type="Float64" Name="pointP" format="ascii">
8.253510e+05 8.253510e+05 8.239072e+05 8.194824e+05 8.181508e+05 8.171151e+05 8.085831e+05 8.034269e+05 7.986250e+05 7.922147e+05 7.865096e+05 7.815177e+05 7.751999e+05 7.700801e+05 7.677040e+05 7.555754e+05 7.516346e+05 7.498066e+05 7.465610e+05 7.422964e+05 7.386445e+05 7.308839e+05 7.240843e+05 7.163877e+05 7.059731e+05 7.012850e+05 6.942397e+05 6.902466e+05 6.804149e+05 6.744013e+05 6.716361e+05 6.593328e+05 6.522419e+05 6.435384e+05 6.318652e+05 6.281656e+05 6.213203e+05 6.138963e+05 6.057443e+05 6.002268e+05 5.922224e+05 5.813207e+05 5.751915e+05 5.642931e+05 5.566731e+05 5.471825e+05 5.375155e+05 5.297591e+05 5.157083e+05 5.070920e+05 4.981822e+05 4.877549e+05 4.789330e+05 4.674238e+05 4.555869e+05 4.444557e+05 4.339207e+05 4.259114e+05 4.165462e+05 4.070373e+05 3.980874e+05 3.872499e+05 3.771546e+05 3.693787e+05 3.617398e+05 3.508670e+05 3.397318e+05 3.305232e+05 3.217608e+05 3.112368e+05 3.011346e+05 2.935264e+05 2.838479e+05 2.747057e+05 2.651809e+05 2.574039e+05 2.478931e+05 2.386666e+05 2.296367e+05 2.205273e+05 2.107563e+05 2.017283e+05 1.927163e+05 1.842713e+05 1.757458e+05 1.670032e+05 1.586945e+05 1.505537e+05 1.414846e+05 1.333415e+05 1.257116e+05 1.177233e+05 1.103335e+05 1.029614e+05 9.545518e+04 8.843689e+04 8.134870e+04 7.501927e+04 6.808000e+04 5.993388e+04 5.354449e+04 4.761300e+04 4.226427e+04 3.582176e+04 3.002498e+04 2.468122e+04 2.001256e+04 1.504774e+04 1.003226e+04 6.139637e+03 1.921886e+03 -6.283210e+02 -5.916488e+03 -1.176504e+04 -1.547269e+04 -1.834557e+04 -2.093850e+04 -2.483673e+04 -2.816175e+04 -3.282599e+04 -3.425754e+04 -3.636435e+04 -3.457031e+04 -3.758813e+04 -4.039160e+04 -4.109947e+04 -4.204194e+04 -3.927257e+04 -3.596842e+04 -4.149484e+04 -4.401979e+04 -4.379787e+04 -4.584769e+04 -4.085769e+04 -4.755962e+04 -4.872611e+04 -4.609930e+04 -4.801201e+04 -4.297560e+04 -3.877576e+04 -4.451996e+04 -4.306153e+04 -3.753374e+04 -3.297418e+04 -2.802254e+04 -4.035864e+04 -2.634522e+04 -2.817416e+04 -1.505028e+04 -2.792177e+04 -3.262531e+04 -3.084971e+04 -2.466633e+04 -4.208813e+04 -4.235274e+04 -1.910553e+04 -3.078425e+04 -3.318522e+04 -3.649978e+04 -3.320669e+04 -1.989804e+04 -2.073575e+04 -7.433645e+03 8.642562e+02 5.199921e+02 -1.246740e+04 -1.709058e+04 -1.320419e+04 -2.114072e+03 -3.278930e+04 -2.280227e+04 3.413530e+02 3.091401e+02 4.295643e+03 -1.129899e+04 -1.298337e+04 -2.486750e+04 -1.040642e+04 1.253419e+04 2.058798e+04 -5.392115e+04 1.100831e+05 1.100831e+05 1.100831e+05 1.278869e+05 1.278869e+05 1.278869e+05 1.318889e+05 1.285067e+05 1.515763e+05 1.392225e+05 1.747455e+05 1.747455e+05 1.747455e+05 1.746893e+05 5.084770e+04 5.084770e+04 5.084770e+04 5.057510e+04 5.674801e+04 4.187716e+05 4.187716e+05 4.187716e+05 4.165707e+05 4.176428e+05 4.176428e+05 4.176428e+05 4.067808e+05 8.460739e+04 8.460739e+04 8.460739e+04 9.108752e+04 9.630729e+04 9.651832e+04 -1.211248e+05 -1.211248e+05 -1.211248e+05 -1.314836e+05 -1.314836e+05 4.402189e+05 4.402189e+05 4.402189e+05 4.299756e+05 -1.825158e+05 -1.825158e+05 -1.825158e+05 -2.027492e+05 -2.027492e+05 6.914740e+05 6.914740e+05 6.914740e+05 2.503417e+05 2.503417e+05 2.503417e+05 2.543628e+05 1.708197e+05 1.708197e+05 1.708197e+05 4.684807e+05 4.684807e+05 4.684807e+05 4.869935e+05 -5.327973e+04 -5.327973e+04 -7.733373e+04 -7.733373e+04 2.911107e+05 2.911107e+05 2.960376e+05 4.668747e+05 4.668747e+05 4.668747e+05 4.992170e+05 4.992170e+05 -2.672272e+05 -2.672272e+05 -2.672272e+05 -2.640898e+05 -2.640898e+05 7.598990e+04 7.598990e+04 7.598990e+04 6.719281e+04 6.719281e+04 4.336070e+05 4.336070e+05 2.812187e+05 2.812187e+05 2.812187e+05 2.799293e+05 1.773853e+05 1.773853e+05 1.773853e+05 1.732252e+05 1.726153e+05 3.170379e+05 3.170379e+05 3.170379e+05 2.666105e+05 2.666105e+05 2.676800e+05 6.281656e+05 6.132234e+05 6.132234e+05 4.295643e+03 -1.156189e+05 -1.156189e+05 1.700684e+05 -4.039160e+04 -4.462629e+04 1.646868e+05 1.254276e+05 1.254276e+05 1.254276e+05 1.318779e+05 7.192105e+04 1.259505e+05 1.259505e+05 1.259505e+05 1.370531e+05 1.370531e+05 4.324062e+04 4.324062e+04 4.324062e+04 5.177682e+04 -2.716815e+04 -2.716815e+04 -2.716815e+04 -2.935986e+04 4.035194e+05 3.997361e+05 3.884500e+05 4.283876e+05 4.283876e+05 1.452397e+05 1.452397e+05 1.452397e+05 1.511392e+05 3.029107e+05 3.029107e+05 3.029107e+05 3.097603e+05 3.097603e+05 3.016790e+05 -6.760132e+04 -6.760132e+04 -6.760132e+04 -7.209445e+04 -2.661600e+04 -2.661600e+04 -2.661600e+04 -1.887809e+04 -1.468044e+04 2.488168e+05 2.488168e+05 2.488168e+05 2.492428e+05 -2.029801e+05 -2.254176e+05 3.778105e+04 3.778105e+04 3.778105e+04 4.496103e+04 -1.143982e+05 -1.143982e+05 -1.143982e+05 -1.099257e+05 3.647739e+05 3.647739e+05 3.647739e+05 3.774182e+05 3.774182e+05 -1.659469e+05 -1.659469e+05 -1.659469e+05 -1.556673e+05 4.027435e+05 4.027435e+05 4.027435e+05 3.909792e+05 5.113038e+05 5.113038e+05 5.113038e+05 5.201056e+05 -5.467982e+04 -5.467982e+04 -4.805668e+04 1.820965e+05 1.820965e+05 1.994600e+05 1.994600e+05 1.994600e+05 1.393140e+05 1.393140e+05 1.393140e+05 1.364952e+05 -1.337957e+05 -1.337957e+05 -1.337957e+05 -1.481816e+05 -1.481816e+05 6.694010e+05 6.694010e+05 6.694010e+05 6.514341e+05 6.514341e+05 1.866976e+05 4.174308e+05 4.174308e+05 4.220590e+05 -7.870251e+04 -7.870251e+04 -7.870251e+04 -1.152284e+05 -7.904936e+04 -7.904936e+04 -1.409001e+05 -1.409001e+05 5.862156e+05 5.862156e+05 5.868190e+05 5.032154e+05 5.032154e+05 -7.266456e+04 -7.266456e+04 -1.485214e+05 -1.485214e+05 4.589564e+05 4.589564e+05 4.589564e+05 4.532416e+05 1.686073e+05 1.629818e+05 2.656048e+05 2.656048e+05 2.656048e+05 2.649332e+05 3.176720e+05 3.176720e+05 3.176720e+05 3.098839e+05 3.098839e+05 -3.602433e+05 -3.602433e+05 -3.602433e+05 -3.871389e+05 -3.871389e+05 2.900718e+05 2.964292e+05 6.815300e+05 6.815300e+05 6.815300e+05 6.741796e+05 -2.048832e+05 -2.048832e+05 -2.048832e+05 -2.298134e+05 -2.298134e+05 -2.024431e+05 -2.008763e+05 1.840701e+05 1.840701e+05 1.840701e+05 1.765672e+05 1.765672e+05 1.021827e+05 1.048502e+05 1.048502e+05 -1.000328e+05 -1.000328e+05 -1.000328e+05 -9.765217e+04 -9.765217e+04 -6.688775e+04 -6.688775e+04 -6.688775e+04 -7.342949e+04 -7.342949e+04 -1.676915e+05 -1.676915e+05 -1.596633e+05 -1.596633e+05 1.748682e+05 1.748682e+05 1.681082e+05 -1.484273e+05 -1.484273e+05 -1.522010e+05 -1.522010e+05 -7.595068e+04 -7.595068e+04 -7.595068e+04 -6.270268e+04 5.236080e+04 5.236080e+04 5.236080e+04 3.857506e+04 3.857506e+04 3.698421e+05 3.956190e+05 3.322975e+05 1.308645e+05 1.308645e+05 1.308645e+05 1.407795e+05 1.407795e+05 1.643412e+05 1.643412e+05 1.694117e+05 1.119527e+05 1.119527e+05 1.107990e+05 1.017023e+05 1.805508e+05 1.805508e+05 1.805508e+05 1.715458e+05 1.715458e+05 1.715458e+05 2.112111e+05 2.112111e+05 2.112111e+05 4.907515e+04 5.651048e+04 1.450517e+05 2.138013e+05 2.138013e+05 2.138013e+05 2.044496e+05 2.470536e+05 2.470536e+05 2.470536e+05 2.498235e+05 2.498235e+05 2.498235e+05 2.438553e+05 -4.107522e+04 -4.107522e+04 -4.107522e+04 5.748524e+04 5.748524e+04 5.748524e+04 1.990070e+05 1.990070e+05 1.990070e+05 3.632423e+05 3.632423e+05 3.625199e+05 -9.396773e+04 -3.716534e+04 -3.716534e+04 4.391621e+05 4.391621e+05 4.391621e+05 4.630833e+05 4.630833e+05 1.436609e+05 1.436609e+05 -2.646761e+05 -2.350619e+05 -2.254176e+05 4.997890e+05 4.997890e+05 4.997890e+05 4.883567e+05 -1.121807e+04 -1.121807e+04 -1.121807e+04 1.646817e+05 1.633628e+05 1.584362e+05 5.212196e+04 5.212196e+04 5.212196e+04 -1.099262e+05 -1.099262e+05 -1.099262e+05 -1.125028e+05 -1.172119e+05 1.849909e+05 1.849909e+05 1.849909e+05 6.014280e+05 6.014280e+05 6.014280e+05 5.973108e+05 3.147132e+05 3.147132e+05 3.147132e+05 3.086910e+05 6.279220e+05 6.279220e+05 6.279220e+05 2.724569e+05 9.114322e+04 9.114322e+04 1.092226e+05 1.092226e+05 1.092226e+05 1.073512e+05 1.096400e+05 -4.186697e+05 -4.186697e+05 -4.307999e+05 -1.394402e+05 -1.233340e+05 4.401906e+05 4.401906e+05 -6.376067e+04 -6.376067e+04 -6.376067e+04 -6.634481e+04 -9.609669e+04 -9.609669e+04 -9.609669e+04 -1.339868e+05 3.693787e+05 3.521719e+05 3.521719e+05 2.715731e+04 2.715731e+04 2.715731e+04 2.647629e+04 -6.296656e+04 5.774292e+04 5.774292e+04 6.015902e+04 4.837076e+05 4.837076e+05 4.837076e+05 6.794959e+05 6.794959e+05 6.358858e+05 6.358858e+05 6.358858e+05 6.697427e+05 7.057368e+05 7.057368e+05 7.057368e+05 6.991848e+05 6.991848e+05 7.262781e+05 5.936130e+05 5.936130e+05 1.005186e+05 -5.662622e+04 -5.662622e+04 -5.764743e+04 3.054862e+04 7.348653e+05 6.944569e+05 7.348653e+05 7.348653e+05 3.824369e+05 3.824369e+05 3.824369e+05 3.602634e+05 3.602634e+05 4.555269e+05 4.555269e+05 4.776725e+05 4.776725e+05 4.016070e+05 4.016070e+05 4.016070e+05 4.176787e+05 4.176787e+05 1.424614e+05 1.424614e+05 1.424614e+05 1.481974e+05 1.481974e+05 5.078980e+05 5.078980e+05 5.078980e+05 4.810287e+05 4.810287e+05 2.670182e+05 2.670182e+05 2.670182e+05 1.598802e+05 -2.014169e+05 -2.014169e+05 -2.014169e+05 -1.872604e+05 -1.872604e+05 -1.163461e+05 -1.163461e+05 -1.163461e+05 -9.849524e+04 -9.849524e+04 -1.883946e+04 -1.883946e+04 -1.883946e+04 -2.281588e+03 -2.281588e+03 4.202434e+05 4.202434e+05 4.202434e+05 1.728436e+05 1.728436e+05 1.728436e+05 1.810821e+05 1.810821e+05 3.319155e+04 5.454952e+04 -1.573835e+04 -1.573835e+04 -1.573835e+04 -2.518259e+04 1.604131e+05 1.604131e+05 1.574619e+05 1.028505e+05 1.028505e+05 1.031707e+05 1.031707e+05 1.115424e+05 1.178727e+05 2.162144e+05 1.922516e+05 2.162144e+05 2.162144e+05 1.515763e+05 1.515763e+05 1.237040e+05 2.485687e+05 2.568687e+05 4.643036e+05 4.643036e+05 4.643036e+05 4.576866e+05 4.636910e+05 2.592817e+04 2.592817e+04 2.592817e+04 1.930685e+04 -1.135507e+05 -8.666484e+04 -3.956125e+05 -3.956125e+05 -3.956125e+05 -3.753707e+05 4.054268e+05 4.178607e+05 4.223294e+05 1.104302e+05 1.104302e+05 1.082308e+05 -1.010178e+05 -1.338039e+05 -1.338039e+05 -1.364858e+05 -1.905788e+05 -5.637886e+04 -7.412384e+04 -9.107322e+04 1.107281e+04 1.107281e+04 1.107281e+04 1.040319e+04 -9.013314e+04 -9.013314e+04 -9.013314e+04 -4.581051e+04 1.141568e+05 -2.634522e+04 -1.041772e+05 -1.041772e+05 3.019763e+05 3.019763e+05 3.019763e+05 5.504130e+03 6.507035e+05 6.507035e+05 3.982768e+04 3.982768e+04 3.982768e+04 3.669193e+05 -6.783338e+04 -6.783338e+04 2.161119e+04 -1.056304e+03 -1.056304e+03 -1.056304e+03 -4.109357e+03 -4.979372e+04 -4.225062e+04 -4.225062e+04 -7.362391e+04 -3.078425e+04 1.286885e+05 1.286885e+05 -1.031030e+05 -1.031030e+05 -1.031030e+05 -5.914053e+04 5.901194e+05 5.819834e+05 5.819834e+05 3.324264e+05 -1.102015e+05 -1.102015e+05 -1.216257e+05 6.267549e+05 6.267549e+05 5.802307e+05 4.282129e+05 -3.282599e+04 -4.065119e+04 -4.065119e+04 7.658728e+05 7.658728e+05 -4.678735e+04 6.769672e+05 6.769672e+05 -2.323097e+04 -2.323097e+04 -2.323097e+04 -2.455305e+04 -8.817724e+04 -8.817724e+04 -4.904164e+04 -4.904164e+04 -1.205018e+05 -1.402716e+05 2.538185e+05 2.557513e+05 -2.802254e+04 -8.951320e+04 -8.951320e+04 1.505537e+05 1.531118e+05 1.531118e+05 -4.143993e+04 -4.143993e+04 -1.396857e+05 -1.396857e+05 5.260943e+05 1.605568e+05 7.758299e+05 7.758299e+05 7.724634e+05 7.934137e+05 7.934137e+05 5.922224e+05 5.594558e+05 3.710020e+05 3.710020e+05 3.710020e+05 6.932332e+05 6.932332e+05 6.932332e+05 6.933390e+05 -3.200070e+04 -3.200070e+04 3.992674e+05 -1.499629e+05 -1.499629e+05 8.036088e+02 -7.617391e+04 4.865208e+04 4.865208e+04 4.865208e+04 -5.094200e+04 -5.094200e+04 5.751915e+05 5.428443e+05 5.428443e+05 2.296367e+05 2.303859e+05 2.017283e+05 2.033131e+05 -2.342623e+05 7.408379e+05 7.408379e+05 -8.791855e+04 -8.791855e+04 -8.791855e+04 -9.615680e+04 6.858154e+05 -4.699840e+04 -1.134912e+04 -1.134912e+04 -1.431314e+04 -4.518826e+04 -4.518826e+04 -1.272482e+05 -1.272482e+05 -4.984109e+04 3.508670e+05 3.379241e+05 3.379241e+05 6.399906e+04 7.535158e+05 7.535158e+05 7.170843e+05 7.170843e+05 8.358244e+04 8.358244e+04 8.358244e+04 -9.623721e+04 -9.623721e+04 -9.623721e+04 9.510838e+04 9.510838e+04 5.765425e+05 7.483017e+05 7.343900e+05 6.895401e+05 5.664276e+05 7.193012e+05 -1.770178e+05 2.379137e+05 2.419338e+05 -1.005609e+05 -1.005609e+05 4.515669e+05 3.931095e+05 -7.190417e+04 -8.775787e+04 7.476415e+04 7.476415e+04 8.253510e+05 7.874069e+05 7.617492e+05 7.617492e+05 7.617492e+05 7.935395e+05 6.135788e+05 5.796471e+05 6.562004e+05 6.485347e+05 2.194681e+05 2.194681e+05 2.149834e+05 5.504679e+05 -1.523817e+05 -1.224768e+05 4.411331e+05 3.822322e+05 3.822322e+05 3.822322e+05 5.237065e+04 -1.973701e+04 -1.973701e+04 -1.973701e+04 7.712245e+05 6.305174e+05 6.977162e+05 6.524829e+05 -5.151509e+04 3.364780e+05 6.731413e+05 7.171986e+05 -2.051454e+05 -3.027802e+05 -3.027802e+05 2.833612e+05 3.676595e+05 -1.601013e+05 -1.890289e+05 5.616574e+05 5.230653e+05 5.230653e+05 -1.762377e+05 -1.762377e+05 -1.952125e+05 -1.952125e+05 -3.207043e+04 4.469533e+05 1.466226e+05 -2.378590e+05 6.573821e+05 6.368562e+05 4.650529e+04 1.378408e+05 1.354267e+05 1.354267e+05 6.072627e+05 6.072627e+05 5.784950e+05 5.784950e+05 3.643929e+04 4.304617e+04 -7.373924e+04 -7.373924e+04 -6.544819e+04 5.025627e+03 5.025627e+03 -1.213605e+03 -1.213605e+03 -5.217846e+04 -5.217846e+04 -3.649072e+05 6.368883e+05 6.368883e+05 5.277919e+05 5.277919e+05 5.277919e+05 4.817386e+05 -1.681474e+05 -1.681474e+05 -1.295839e+05 -1.295839e+05 -2.622832e+05 -2.493777e+05 5.357020e+05 6.682598e+05 -6.967654e+04 -2.938126e+05 -2.938126e+05 7.869158e+04 7.869158e+04 8.707015e+04 -2.526361e+05 -2.526361e+05 -8.111034e+04 -8.111034e+04 6.156488e+05 6.156488e+05 2.336704e+05 7.467445e+05 3.449404e+05 3.449404e+05 3.404519e+05 1.477895e+05 1.526103e+05 -1.606148e+05 -1.856627e+05 -4.181394e+04 7.115557e+05 -3.551712e+05 -8.656310e+03 -8.656310e+03 -8.656310e+03 1.201646e+05 1.201646e+05 1.201646e+05 1.920350e+05 2.400757e+04 2.400757e+04 2.400757e+04 1.602867e+04 7.468086e+05 7.135388e+05 4.362960e+05 4.116103e+05 4.116103e+05 9.686715e+04 9.686715e+04 9.686715e+04 4.546742e+05 -1.739654e+05 6.800731e+05 7.382517e+05 7.382517e+05 7.108494e+05 1.216841e+05 -9.851316e+04 -9.851316e+04 -1.051761e+05 -4.571976e+04 -4.571976e+04 6.636707e+05 -1.273426e+05 -3.897756e+04 -3.403647e+04 -1.043761e+05 2.117216e+05 2.176071e+05 6.730305e+05 5.538615e+04 5.538615e+04 5.538615e+04 -8.756473e+04 -8.756473e+04 5.115950e+05 4.841132e+05 4.841132e+05 6.072036e+05 5.905095e+05 -1.664922e+05 -1.633667e+05 6.027811e+05 6.027811e+05 6.027811e+05 5.935250e+05 -1.585212e+05 -1.585212e+05 -1.479498e+05 -3.046500e+05 -3.046500e+05 2.398058e+05 2.398058e+05 2.398058e+05 2.441448e+05 -4.305485e+04 6.032767e+05 6.032767e+05 6.032767e+05 6.113910e+05 6.585753e+05 -1.299486e+05 -1.299486e+05 -1.341847e+05 -1.341847e+05 -1.765074e+05 5.086520e+05 5.086520e+05 8.592271e+04 7.963511e+04 4.490798e+05 4.490798e+05 -1.346807e+05 -1.397557e+05 5.899755e+05 6.944569e+05 6.770117e+05 -5.609228e+04 -5.586420e+04 6.474565e+05 2.533978e+04 2.533978e+04 2.405059e+04 2.405059e+04 -6.032986e+04 5.792941e+04 6.528739e+04 3.861532e+05 -2.623980e+04 -1.493883e+05 -1.388071e+05 4.965976e+05 4.965976e+05 6.839715e+05 6.839715e+05 6.839715e+05 6.564992e+05 -2.713867e+05 -2.713867e+05 -2.923999e+05 2.344168e+05 2.288216e+05 3.636796e+05 -3.445669e+05 -4.114275e+05 -4.114275e+05 -4.114275e+05 -3.926546e+05 5.262738e+03 8.239072e+05 5.835863e+05 5.473714e+05 5.473714e+05 -2.213182e+05 -2.213182e+05 -2.213182e+05 -2.335558e+05 6.386537e+05 6.386537e+05 5.531054e+05 5.531054e+05 5.395350e+05 4.138056e+05 3.153939e+05 6.401395e+05 -2.205328e+04 -2.812449e+04 6.469878e+05 6.383151e+05 1.542517e+05 3.351114e+05 3.351114e+05 3.351114e+05 3.441524e+05 -2.142487e+05 3.275340e+04 3.286315e+04 -2.793481e+05 -2.630591e+05 1.095997e+05 1.139527e+05 -9.729983e+04 -9.729983e+04 3.724019e+05 -6.540899e+04 -6.540899e+04 -5.726375e+04 -8.179340e+04 -8.179340e+04 9.821031e+03 -1.969781e+05 -1.969781e+05 -2.064318e+05 5.441421e+05 6.181104e+05 6.181104e+05 -9.201469e+03 -7.836004e+03 -7.836004e+03 2.622052e+05 -2.326787e+05 -3.195932e+05 -2.893030e+05 4.957322e+05 4.957322e+05 1.346733e+05 -4.457412e+04 2.560907e+05 2.497185e+05 2.275860e+05 4.938582e+05 4.938582e+05 3.476032e+05 3.476032e+05 3.476032e+05 2.188085e+05 2.179154e+05 4.293138e+05 4.250207e+05 4.250207e+05 1.383201e+05 1.310553e+05 1.310553e+05 2.861896e+05 2.008385e+05 2.084335e+05 5.800264e+05 5.675521e+05 5.675521e+05 5.675521e+05 5.847251e+05 -2.446389e+05 -1.319856e+05 2.498684e+03 8.044115e+03 -9.707088e+04 -9.707088e+04 -9.707088e+04 6.211222e+04 6.211222e+04 6.211222e+04 6.445467e+04 7.329448e+04 -2.133182e+05 -1.736965e+05 -1.732416e+05 4.108893e+04 4.108893e+04 -1.961036e+05 -1.728319e+05 -1.690976e+05 -1.690976e+05 2.399731e+04 -6.693944e+04 -6.693944e+04 -7.040715e+04 3.899962e+05 3.899962e+05 3.791927e+05 -2.155493e+04 -2.155493e+04 1.678292e+05 -1.335744e+05 -1.335744e+05 -1.412296e+05 -1.412296e+05 -2.247690e+05 -2.247690e+05 -2.247690e+05 5.533101e+05 5.255231e+05 5.255231e+05 -2.392132e+05 -2.392132e+05 -2.392132e+05 -2.873789e+05 -2.621030e+05 5.152465e+04 5.559155e+05 5.559155e+05 5.285291e+05 5.110242e+05 5.110242e+05 5.110242e+05 3.029459e+05 3.029459e+05 2.994659e+05 2.719690e+05 2.719690e+05 2.791730e+05 -2.336211e+05 -1.921424e+05 -1.921424e+05 6.049942e+05 5.757326e+05 -3.594915e+04 -3.594915e+04 -3.594915e+04 6.382165e+05 -1.523833e+05 -1.523833e+05 -1.495421e+05 -1.495421e+05 -2.267316e+05 -2.267316e+05 -2.112355e+05 -2.112355e+05 -2.509882e+05 -2.509882e+05 -2.842298e+05 2.375766e+05 2.346801e+05 -3.003151e+04 4.610576e+05 4.610576e+05 4.610576e+05 6.238998e+04 3.379076e+05 -2.009286e+05 3.033449e+05 6.073644e+05 -8.872351e+04 3.613321e+05 3.613321e+05 6.137479e+05 5.802165e+05 5.802165e+05 2.584147e+05 2.593278e+05 5.677657e+05 5.677657e+05 5.367280e+05 -1.685785e+05 -1.685785e+05 8.133758e+04 1.316729e+05 5.125227e+05 1.896094e+05 6.000446e+05 5.613995e+05 5.613995e+05 -4.443155e+04 3.943677e+04 1.600689e+04 5.521169e+05 5.711226e+05 -2.059345e+05 -2.059345e+05 -8.373244e+04 -8.373244e+04 1.454837e+05 -2.234171e+05 -2.224575e+05 -2.224575e+05 5.103849e+05 -5.474092e+04 -4.332026e+04 1.517387e+04 1.517387e+04 1.517387e+04 5.582858e+03 5.582858e+03 3.321921e+05 4.793360e+05 5.434117e+05 4.034606e+05 4.034606e+05 2.137589e+05 2.137589e+05 2.154455e+05 2.018365e+05 2.018365e+05 5.596900e+05 5.596900e+05 5.596900e+05 5.259126e+05 5.259126e+05 2.737061e+05 2.737061e+05 2.825701e+05 3.305666e+05 3.087292e+05 3.087292e+05 3.087292e+05 -1.225604e+05 3.499694e+05 3.360243e+05 3.360243e+05 -1.197046e+05 -1.130163e+05 -2.350619e+05 -2.049817e+05 5.136301e+05 2.586951e+05 2.480041e+05 5.757326e+05 4.125623e+05 4.125623e+05 3.924997e+05 3.924997e+05 4.316999e+05 4.320329e+05 5.126274e+05 -1.887164e+05 -1.324020e+05 -1.324020e+05 -1.321636e+05 -2.181274e+05 4.535718e+05 -2.371378e+05 7.205384e+04 -1.040413e+05 5.387267e+05 4.896829e+05 4.896829e+05 4.774596e+05 4.774596e+05 1.587687e+03 1.205099e+05 1.205099e+05 1.205099e+05 -3.234656e+04 4.408952e+05 1.647899e+05 -1.651029e+05 -1.665068e+05 -5.932973e+04 -2.146145e+05 -1.416512e+05 -1.590065e+05 -1.807090e+05 -1.807090e+05 -1.807090e+05 3.483212e+05 -1.913304e+04 -2.066796e+05 3.957778e+05 3.957778e+05 3.843389e+05 2.098410e+05 7.400048e+04 7.400048e+04 4.774491e+05 2.886192e+05 2.941275e+05 -1.970281e+05 2.012201e+05 2.012201e+05 2.164497e+05 -2.209498e+05 -1.828568e+05 -1.828568e+05 -1.892124e+05 1.258444e+05 1.258444e+05 1.258444e+05 2.337936e+05 2.669620e+04 1.745814e+05 8.382350e+03 -2.322959e+03 -2.322959e+03 -3.016428e+04 -9.567472e+04 3.419359e+05 3.419359e+05 4.226277e+05 -5.120613e+04 -5.120613e+04 -5.120613e+04 -5.613736e+04 5.086331e+05 2.556395e+05 4.848295e+05 4.550420e+05 1.028358e+05 3.191682e+05 3.244058e+05 4.809182e+05 2.434839e+05 2.414254e+05 -2.029801e+05 2.356060e+05 3.982019e+05 3.982019e+05 3.982019e+05 5.387468e+05 5.214556e+05 3.874990e+05 4.554182e+05 5.387468e+05 -1.650731e+05 -1.855059e+05 -8.261626e+04 2.874605e+05 2.672173e+05 1.887065e+05 -1.464097e+05 -1.464097e+05 -1.464097e+05 -4.023567e+04 4.567341e+05 4.567341e+05 4.859813e+05 4.859813e+05 2.185044e+05 -1.703590e+05 4.419307e+05 8.722948e+04 8.722948e+04 8.722948e+04 4.002262e+04 4.292245e+05 4.292245e+05 8.066284e+04 1.763507e+05 2.931408e+05 -1.417902e+05 3.948034e+05 3.948034e+05 3.948034e+05 -1.587481e+05 -1.587481e+05 -1.587481e+05 5.342501e+05 1.716393e+05 4.591901e+05 4.591901e+05 -1.775012e+05 -1.775012e+05 -1.775012e+05 -1.701721e+05 2.579897e+04 2.579897e+04 2.579897e+04 3.491232e+05 3.491232e+05 3.491232e+05 3.813972e+05 1.061814e+05 1.035983e+05 1.237613e+05 1.237613e+05 1.237613e+05 5.308385e+04 5.720927e+04 5.720927e+04 3.412987e+05 3.172167e+05 5.178589e+05 1.003621e+05 9.488207e+04 -1.257742e+05 -9.882864e+04 2.398524e+05 -5.553554e+04 -1.342888e+05 -1.342888e+05 -1.438938e+05 4.127664e+05 2.165885e+05 -3.409365e+04 -4.015705e+04 7.475843e+04 2.378656e+05 1.378840e+04 1.378840e+04 3.207206e+05 3.428286e+05 3.320333e+05 -6.752681e+04 1.696425e+05 4.220529e+05 -1.200923e+05 -1.200923e+05 -1.556474e+05 -1.556474e+05 3.586986e+05 3.586986e+05 3.586986e+05 3.392814e+05 3.392814e+05 2.338876e+05 3.782679e+05 3.718640e+05 3.718640e+05 -5.744704e+04 1.975663e+05 2.124426e+05 2.673480e+05 2.673480e+05 2.871861e+05 3.450658e+05 -1.164595e+05 -1.164595e+05 3.250330e+05 3.173383e+05 -1.257742e+05 -1.257742e+05 -3.280412e+04 1.174950e+03 1.174950e+03 1.174950e+03 1.457447e+05 -7.390660e+04 -7.005090e+04 8.411352e+04 8.411352e+04 8.411352e+04 1.161777e+05 1.282876e+05 2.156290e+05 1.077543e+05 -4.085709e+04 2.669246e+05 2.669246e+05 2.669246e+05 2.550109e+05 -7.494835e+03 3.313500e+05 3.313500e+05 3.313500e+05 2.951754e+05 -1.018574e+05 3.089928e+05 3.089928e+05 1.506225e+05 -1.042592e+05 -1.042592e+05 -1.042592e+05 -1.072664e+05 -1.072664e+05 3.965435e+05 3.709925e+05 3.709925e+05 -9.021474e+04 -1.574388e+04 -1.574388e+04 2.482276e+05 -8.438264e+04 -8.438264e+04 -8.438264e+04 -6.408504e+04 -6.408504e+04 -6.408504e+04 1.205658e+05 1.205658e+05 1.303622e+05 4.269550e+04 -9.033364e+04 -9.033364e+04 1.143252e+05 1.807092e+05 1.807092e+05 1.642856e+05 1.642856e+05 3.022919e+05 1.708155e+04 2.151711e+04 2.151711e+04 9.344330e+03 9.344330e+03 8.046282e+04 8.046282e+04 1.004268e+05 2.269712e+05 2.269712e+05 2.118153e+05 2.118153e+05 4.911842e+04 2.328216e+05 3.404802e+05 3.330852e+05 3.330852e+05 2.168264e+05 1.557899e+05 7.278839e+04 3.143427e+05 3.143427e+05 2.313345e+05 3.322975e+05 3.322975e+05 -8.188691e+04 -8.188691e+04 2.529038e+05 2.935985e+05 2.935985e+05 2.935985e+05 2.741632e+05 2.741632e+05 3.077394e+05 1.832766e+05 1.832766e+05 2.784224e+05 2.784224e+05 2.632144e+05 7.247013e+04 1.468901e+05 -2.401078e+04 -3.268298e+04 3.032525e+05 3.032525e+05 -9.489473e+03 -9.489473e+03 1.181232e+05 1.181232e+05 -6.666274e+04 1.631427e+05 1.631427e+05 1.473314e+05 4.623721e+04 4.623721e+04 2.455768e+05 2.455768e+05 2.293178e+05 1.878103e+05 1.878103e+05 8.040881e+04 8.040881e+04 1.348884e+05 1.348884e+05 1.056678e+05 1.080622e+05 1.080622e+05 1.307877e+04 1.049402e+04 6.848678e+04 1.800713e+05 1.814667e+05 2.839468e+05 2.789736e+05 2.448087e+05 2.448087e+05 2.817185e+05 3.727870e+04 3.727870e+04 1.610368e+04 2.051613e+05 2.786183e+05 2.963122e+05 2.963122e+05 1.028333e+05 1.028333e+05 2.503122e+05 2.753395e+05 7.129018e+04 7.129018e+04 2.349055e+05 2.349055e+05 5.251336e+02 2.996100e+04 2.996100e+04 2.996100e+04 1.394713e+04 1.394713e+04 2.307416e+05 2.157593e+05 1.896166e+05 1.896166e+05 2.097548e+05 2.097548e+05 2.293670e+05 5.978989e+04 2.646743e+05 2.397156e+05 1.545868e+05 1.304381e+05 1.796444e+05 1.518885e+05 2.058408e+05 8.707710e+04 1.405910e+05 1.697421e+05 1.548132e+05 1.610930e+05 1.989918e+05 1.922516e+05 1.081180e+05 1.081180e+05 1.540129e+05 1.468098e+05 1.782859e+05 9.665507e+04 1.029978e+05 1.613945e+05 1.613945e+05 1.598302e+05 1.598302e+05 1.210201e+05 1.210201e+05 1.499134e+05 1.374377e+05 1.374377e+05 1.374377e+05 1.377173e+05 1.377173e+05 6.323196e+04 6.323196e+04 6.323196e+04 1.894945e+04 1.894945e+04 -4.768775e+04 -3.853044e+04 8.784967e+04 -4.768775e+04 -4.768775e+04 -5.730562e+04 -2.579597e+03 2.538868e+04 3.943397e+04 4.491633e+04 4.625277e+04 6.792970e+04 6.973473e+04 8.395316e+04 8.395316e+04 1.176291e+05 -6.439049e+04 8.784967e+04 2.761324e+05 2.172653e+05 1.496528e+05 2.758135e+05 2.758135e+05 2.476994e+05 2.449459e+05 2.476994e+05 1.203230e+05 2.318788e+05 1.332285e+05 9.428934e+04 9.681682e+04 9.681682e+04 1.402292e+05 8.253510e+05 8.253510e+05 8.239072e+05 8.194824e+05 8.181508e+05 8.171151e+05 8.085831e+05 8.034269e+05 7.986250e+05 7.922147e+05 7.865096e+05 7.815177e+05 7.751999e+05 7.700801e+05 7.677040e+05 7.555754e+05 7.516346e+05 7.498066e+05 7.465610e+05 7.422964e+05 7.386445e+05 7.308839e+05 7.240843e+05 7.163877e+05 7.059731e+05 7.012850e+05 6.942397e+05 6.902466e+05 6.804149e+05 6.744013e+05 6.716361e+05 6.593328e+05 6.522419e+05 6.435384e+05 6.318652e+05 6.281656e+05 6.213203e+05 6.138963e+05 6.057443e+05 6.002268e+05 5.922224e+05 5.813207e+05 5.751915e+05 5.642931e+05 5.566731e+05 5.471825e+05 5.375155e+05 5.297591e+05 5.157083e+05 5.070920e+05 4.981822e+05 4.877549e+05 4.789330e+05 4.674238e+05 4.555869e+05 4.444557e+05 4.339207e+05 4.259114e+05 4.165462e+05 4.070373e+05 3.980874e+05 3.872499e+05 3.771546e+05 3.693787e+05 3.617398e+05 3.508670e+05 3.397318e+05 3.305232e+05 3.217608e+05 3.112368e+05 3.011346e+05 2.935264e+05 2.838479e+05 2.747057e+05 2.651809e+05 2.574039e+05 2.478931e+05 2.386666e+05 2.296367e+05 2.205273e+05 2.107563e+05 2.017283e+05 1.927163e+05 1.842713e+05 1.757458e+05 1.670032e+05 1.586945e+05 1.505537e+05 1.414846e+05 1.333415e+05 1.257116e+05 1.177233e+05 1.103335e+05 1.029614e+05 9.545518e+04 8.843689e+04 8.134870e+04 7.501927e+04 6.808000e+04 5.993388e+04 5.354449e+04 4.761300e+04 4.226427e+04 3.582176e+04 3.002498e+04 2.468122e+04 2.001256e+04 1.504774e+04 1.003226e+04 6.139637e+03 1.921886e+03 -6.283210e+02 -5.916488e+03 -1.176504e+04 -1.547269e+04 -1.834557e+04 -2.093850e+04 -2.483673e+04 -2.816175e+04 -3.282599e+04 -3.425754e+04 -3.636435e+04 -3.457031e+04 -3.758813e+04 -4.039160e+04 -4.109947e+04 -4.204194e+04 -3.927257e+04 -3.596842e+04 -4.149484e+04 -4.401979e+04 -4.379787e+04 -4.584769e+04 -4.085769e+04 -4.755962e+04 -4.872611e+04 -4.609930e+04 -4.801201e+04 -4.297560e+04 -3.877576e+04 -4.451996e+04 -4.306153e+04 -3.753374e+04 -3.297418e+04 -2.802254e+04 -4.035864e+04 -2.634522e+04 -2.817416e+04 -1.505028e+04 -2.792177e+04 -3.262531e+04 -3.084971e+04 -2.466633e+04 -4.208813e+04 -4.235274e+04 -1.910553e+04 -3.078425e+04 -3.318522e+04 -3.649978e+04 -3.320669e+04 -1.989804e+04 -2.073575e+04 -7.433645e+03 8.642562e+02 5.199921e+02 -1.246740e+04 -1.709058e+04 -1.320419e+04 -2.114072e+03 -3.278930e+04 -2.280227e+04 3.413530e+02 3.091401e+02 4.295643e+03 -1.129899e+04 -1.298337e+04 -2.486750e+04 -1.040642e+04 1.253419e+04 2.058798e+04 -5.392115e+04 1.100831e+05 1.100831e+05 1.100831e+05 1.278869e+05 1.278869e+05 1.278869e+05 1.318889e+05 1.285067e+05 1.515763e+05 1.392225e+05 1.747455e+05 1.747455e+05 1.747455e+05 1.746893e+05 5.084770e+04 5.084770e+04 5.084770e+04 5.057510e+04 5.674801e+04 4.187716e+05 4.187716e+05 4.187716e+05 4.165707e+05 4.176428e+05 4.176428e+05 4.176428e+05 4.067808e+05 8.460739e+04 8.460739e+04 8.460739e+04 9.108752e+04 9.630729e+04 9.651832e+04 -1.211248e+05 -1.211248e+05 -1.211248e+05 -1.314836e+05 -1.314836e+05 4.402189e+05 4.402189e+05 4.402189e+05 4.299756e+05 -1.825158e+05 -1.825158e+05 -1.825158e+05 -2.027492e+05 -2.027492e+05 6.914740e+05 6.914740e+05 6.914740e+05 2.503417e+05 2.503417e+05 2.503417e+05 2.543628e+05 1.708197e+05 1.708197e+05 1.708197e+05 4.684807e+05 4.684807e+05 4.684807e+05 4.869935e+05 -5.327973e+04 -5.327973e+04 -7.733373e+04 -7.733373e+04 2.911107e+05 2.911107e+05 2.960376e+05 4.668747e+05 4.668747e+05 4.668747e+05 4.992170e+05 4.992170e+05 -2.672272e+05 -2.672272e+05 -2.672272e+05 -2.640898e+05 -2.640898e+05 7.598990e+04 7.598990e+04 7.598990e+04 6.719281e+04 6.719281e+04 4.336070e+05 4.336070e+05 2.812187e+05 2.812187e+05 2.812187e+05 2.799293e+05 1.773853e+05 1.773853e+05 1.773853e+05 1.732252e+05 1.726153e+05 3.170379e+05 3.170379e+05 3.170379e+05 2.666105e+05 2.666105e+05 2.676800e+05 6.281656e+05 6.132234e+05 6.132234e+05 4.295643e+03 -1.156189e+05 -1.156189e+05 1.700684e+05 -4.039160e+04 -4.462629e+04 1.646868e+05 1.254276e+05 1.254276e+05 1.254276e+05 1.318779e+05 7.192105e+04 1.259505e+05 1.259505e+05 1.259505e+05 1.370531e+05 1.370531e+05 4.324062e+04 4.324062e+04 4.324062e+04 5.177682e+04 -2.716815e+04 -2.716815e+04 -2.716815e+04 -2.935986e+04 4.035194e+05 3.997361e+05 3.884500e+05 4.283876e+05 4.283876e+05 1.452397e+05 1.452397e+05 1.452397e+05 1.511392e+05 3.029107e+05 3.029107e+05 3.029107e+05 3.097603e+05 3.097603e+05 3.016790e+05 -6.760132e+04 -6.760132e+04 -6.760132e+04 -7.209445e+04 -2.661600e+04 -2.661600e+04 -2.661600e+04 -1.887809e+04 -1.468044e+04 2.488168e+05 2.488168e+05 2.488168e+05 2.492428e+05 -2.029801e+05 -2.254176e+05 3.778105e+04 3.778105e+04 3.778105e+04 4.496103e+04 -1.143982e+05 -1.143982e+05 -1.143982e+05 -1.099257e+05 3.647739e+05 3.647739e+05 3.647739e+05 3.774182e+05 3.774182e+05 -1.659469e+05 -1.659469e+05 -1.659469e+05 -1.556673e+05 4.027435e+05 4.027435e+05 4.027435e+05 3.909792e+05 5.113038e+05 5.113038e+05 5.113038e+05 5.201056e+05 -5.467982e+04 -5.467982e+04 -4.805668e+04 1.820965e+05 1.820965e+05 1.994600e+05 1.994600e+05 1.994600e+05 1.393140e+05 1.393140e+05 1.393140e+05 1.364952e+05 -1.337957e+05 -1.337957e+05 -1.337957e+05 -1.481816e+05 -1.481816e+05 6.694010e+05 6.694010e+05 6.694010e+05 6.514341e+05 6.514341e+05 1.866976e+05 4.174308e+05 4.174308e+05 4.220590e+05 -7.870251e+04 -7.870251e+04 -7.870251e+04 -1.152284e+05 -7.904936e+04 -7.904936e+04 -1.409001e+05 -1.409001e+05 5.862156e+05 5.862156e+05 5.868190e+05 5.032154e+05 5.032154e+05 -7.266456e+04 -7.266456e+04 -1