<?xml version="1.0"?>
 <VTKFile type="UnstructuredGrid" version="1.0" byte_order="LittleEndian" header_type="UInt64">
  <UnstructuredGrid>
    <FieldData>
     <DataArray type="Float64" Name="TimeValue" NumberOfTuples="1" format="ascii">
0.00026
     </DataArray>
    </FieldData>
   <Piece NumberOfPoints="3548" NumberOfCells="3379">
    <PointData>
     <DataArray type="Float64" Name="pointP" format="ascii">
-1.252081e+04 -1.579217e+04 -1.893557e+04 -2.234846e+04 -2.618435e+04 -2.850427e+04 -3.073775e+04 -3.407047e+04 -3.748548e+04 -3.944058e+04 -3.911722e+04 -3.793219e+04 -3.714404e+04 -4.244306e+04 -4.479352e+04 -4.888872e+04 -4.759527e+04 -4.318411e+04 -4.431365e+04 -4.723113e+04 -4.693892e+04 -4.230357e+04 -4.478825e+04 -4.953515e+04 -4.432659e+04 -3.953923e+04 -3.720112e+04 -4.340190e+04 -4.599484e+04 -2.693031e+04 -2.875032e+04 -2.705075e+04 -2.631761e+04 -3.046727e+04 -3.164248e+04 -3.566705e+04 -2.332856e+04 -2.360429e+04 -2.358204e+04 -3.996423e+03 -6.807128e+03 -1.522998e+04 -1.158026e+04 -1.451961e+04 -2.125107e+04 -4.621870e+03 -1.142212e+04 -1.081217e+04 -8.299614e+03 -1.977174e+04 -5.829739e+03 -1.245068e+04 -2.233294e+04 -1.014360e+04 -4.960335e+03 -8.325401e+03 -6.964525e+03 -1.017987e+04 8.463081e+02 -1.807404e+04 2.633689e+03 7.903471e+03 -5.082330e+02 -2.186522e+04 -3.800495e+04 -3.095268e+04 -5.530639e+04 -4.282112e+04 -1.959794e+04 6.916169e+03 -1.880073e+03 -6.697819e+03 -4.816984e+03 -1.346066e+04 -9.787831e+03 -2.751491e+04 -5.556334e+04 -1.935840e+05 -3.540451e+05 -3.062896e+05 -2.687044e+05 -2.687044e+05 -2.349021e+05 -2.208748e+05 -2.148564e+05 -2.101385e+05 -2.101385e+05 -2.038685e+05 -1.919208e+05 -1.871313e+05 -1.833484e+05 -1.820362e+05 -1.757867e+05 -1.738491e+05 -1.695284e+05 -1.592374e+05 -1.552754e+05 -1.507069e+05 -1.440737e+05 -1.409344e+05 -1.375826e+05 -1.316347e+05 -1.316347e+05 -1.268586e+05 -1.202730e+05 -1.184542e+05 -1.146396e+05 -1.117158e+05 -1.079338e+05 -1.026215e+05 -9.739436e+04 -9.593173e+04 -9.359372e+04 -8.857138e+04 -8.675372e+04 -7.995629e+04 -7.846950e+04 -7.575291e+04 -7.271592e+04 -7.114122e+04 -6.511096e+04 -6.415196e+04 -6.000635e+04 -5.714764e+04 -5.511391e+04 -5.057158e+04 -4.956639e+04 -4.417229e+04 -4.417229e+04 -4.147288e+04 -3.755964e+04 -3.242769e+04 -3.242769e+04 -2.828447e+04 -2.461547e+04 -2.461547e+04 -2.124326e+04 -1.802869e+04 -1.600381e+04 -1.218308e+04 -1.218308e+04 -7.730883e+03 -7.730883e+03 -5.157704e+03 -2.837678e+03 3.459555e+02 2.373193e+03 4.082484e+03 8.249682e+03 8.249682e+03 1.122291e+04 1.328801e+04 1.525665e+04 1.830533e+04 1.830533e+04 -4.667055e+03 -4.667055e+03 -4.667055e+03 -1.334369e+03 6.043729e+04 6.043729e+04 6.043729e+04 2.574583e+04 2.574583e+04 2.574583e+04 3.547085e+04 -3.655562e+04 -3.655562e+04 -3.655562e+04 -4.410604e+04 -8.456358e+04 -8.456358e+04 -8.456358e+04 -9.363742e+04 -2.022339e+05 -2.022339e+05 -2.022339e+05 -1.999419e+05 -1.941833e+05 -1.740776e+05 -1.740776e+05 -1.740776e+05 -1.701799e+05 -4.072291e+02 -4.072291e+02 -4.072291e+02 -6.926410e+04 -6.926410e+04 -6.926410e+04 -6.568600e+04 -6.722946e+04 -2.625641e+05 -2.625641e+05 -2.625641e+05 -2.913197e+05 -2.642527e+04 -2.642527e+04 -2.642527e+04 -1.846014e+04 -1.846014e+04 -9.647104e+04 -9.647104e+04 -9.647104e+04 -1.009455e+05 -1.242690e+05 -1.025719e+05 -1.025719e+05 -1.025719e+05 -1.116111e+05 -1.667990e+05 -1.269965e+05 -1.269965e+05 -1.269965e+05 -1.342193e+05 -1.565709e+05 -1.565709e+05 -1.565709e+05 -1.837515e+04 -1.837515e+04 -6.536801e+04 -6.536801e+04 -1.266351e+05 -1.266351e+05 -1.266351e+05 -5.366199e+04 -1.550273e+05 -1.550273e+05 -1.550273e+05 -5.265339e+04 -2.785885e+05 -2.785885e+05 -3.819252e+05 -3.819252e+05 -2.503339e+05 -2.503339e+05 -2.503339e+05 -2.120649e+05 -2.120649e+05 -3.746755e+05 -3.746755e+05 -3.746755e+05 -3.498440e+05 -3.498440e+05 -1.469181e+04 -2.339389e+05 -2.339389e+05 -2.339389e+05 -2.285807e+05 -5.656716e+04 -5.656716e+04 -5.656716e+04 -5.971217e+04 -5.971217e+04 -1.030756e+05 -1.030756e+05 -1.030756e+05 -9.180936e+04 -9.180936e+04 -1.380271e+05 -1.380271e+05 -1.380271e+05 -1.406710e+05 -1.406710e+05 -1.631195e+05 -1.631195e+05 -1.631195e+05 -1.521014e+05 -1.521014e+05 -1.770161e+04 -1.770161e+04 -1.770161e+04 -1.608184e+04 -2.141218e+04 -2.141218e+04 -2.141218e+04 -2.928686e+04 -1.100407e+05 -1.100407e+05 -1.100407e+05 -1.191443e+05 -1.191443e+05 3.165177e+04 3.165177e+04 3.165177e+04 -3.007795e+04 -3.007795e+04 -3.007795e+04 -2.582744e+04 -2.582744e+04 1.488520e+04 1.488520e+04 1.488520e+04 3.179060e+04 3.179060e+04 -4.783758e+04 -4.783758e+04 -4.783758e+04 -3.687389e+04 -1.108539e+05 -1.108539e+05 -1.811002e+05 -1.811002e+05 -1.811002e+05 -5.431863e+04 -5.431863e+04 -4.239961e+04 -4.239961e+04 -3.551492e+04 -3.551492e+04 -3.551492e+04 -3.562828e+04 -2.959388e+05 -2.959388e+05 -2.959388e+05 -2.694342e+05 -3.426448e+04 -3.426448e+04 -2.816141e+05 -2.816141e+05 -2.816141e+05 -9.934486e+04 -9.934486e+04 -9.934486e+04 -1.087374e+05 -1.087374e+05 -3.890955e+05 -3.890955e+05 -3.890955e+05 -4.113303e+05 -4.113303e+05 -1.394050e+05 -1.394050e+05 -1.212648e+05 -1.389136e+05 -1.389136e+05 -1.389136e+05 -5.623286e+04 -5.623286e+04 -4.599484e+04 -1.174415e+05 -1.174415e+05 -1.174415e+05 -5.166737e+04 -9.756567e+04 -6.300693e+04 -1.376423e+05 -1.376423e+05 -1.376423e+05 -1.513105e+05 -1.513105e+05 -1.513105e+05 -1.286074e+05 -1.286074e+05 -1.286074e+05 -2.983868e+05 -2.983868e+05 -2.983868e+05 -2.628626e+05 -2.628626e+05 -1.933963e+05 -1.933963e+05 -1.933963e+05 -2.083816e+05 -2.083816e+05 -1.844794e+05 -1.844794e+05 -1.767920e+05 -1.767920e+05 -1.909696e+05 -1.909696e+05 -1.854581e+05 -1.929423e+04 -1.929423e+04 -2.130487e+04 -2.130487e+04 -2.139004e+04 -2.139004e+04 7.936531e+04 7.318324e+04 7.936531e+04 7.936531e+04 -7.618691e+04 -9.229673e+04 -9.229673e+04 -1.832311e+05 -1.832311e+05 -1.832311e+05 -2.019194e+05 -2.019194e+05 -2.019194e+05 -4.019831e+04 -9.957045e+04 -9.957045e+04 -8.321531e+04 -8.321531e+04 -9.214684e+04 -6.317643e+04 -6.074143e+04 7.903471e+03 -1.794423e+05 -1.794423e+05 -1.071021e+05 -1.071021e+05 -3.395721e+04 -2.875032e+04 -1.181880e+05 -1.181880e+05 -1.832531e+05 -1.832531e+05 -1.832531e+05 -9.959336e+04 -1.846702e+05 -2.618435e+04 -3.126951e+04 -3.126951e+04 -3.164248e+04 -1.063977e+05 -1.063977e+05 -1.469181e+04 -7.705971e+04 -7.705971e+04 -5.268792e+04 -4.727033e+04 -4.727033e+04 -4.727033e+04 -4.879411e+04 -1.129731e+05 -1.129731e+05 -5.578504e+04 -6.802541e+04 -6.802541e+04 -6.802541e+04 -5.139771e+04 -5.139771e+04 -6.421233e+04 -4.513407e+04 -4.513407e+04 -5.086474e+04 -3.407047e+04 -3.510741e+04 -7.257878e+04 -7.257878e+04 -1.742745e+05 -1.214096e+05 -1.386910e+05 -1.386910e+05 -1.301813e+05 -6.964525e+03 -1.181623e+05 -1.181623e+05 -4.491367e+04 -2.850427e+04 -3.609176e+04 -1.637017e+05 -9.471918e+04 -7.529579e+04 -5.491056e+04 -5.491056e+04 -1.147585e+05 -1.213420e+05 -2.105097e+05 -1.227753e+05 -1.227753e+05 -1.227753e+05 -1.041807e+05 -1.041807e+05 -2.917071e+04 -2.917071e+04 -4.893229e+04 -4.636568e+04 -5.930811e+04 -4.146959e+05 -1.901584e+05 -1.901584e+05 -2.301720e+04 -1.123016e+05 -1.703802e+05 -1.586418e+05 -3.383509e+04 -1.374038e+05 -9.608039e+04 -1.964628e+05 -2.160406e+05 -2.160406e+05 -1.258654e+05 -1.351571e+05 -1.871944e+05 -2.561847e+05 -3.553260e+05 -4.244578e+04 -4.244578e+04 -4.295273e+04 -1.925586e+05 -1.975222e+05 -1.975222e+05 -2.023033e+05 -6.411482e+04 -6.411482e+04 -6.411482e+04 -6.785155e+04 -3.824887e+05 -2.509615e+05 -9.328050e+04 -9.328050e+04 -9.328050e+04 -9.122840e+04 -1.632971e+05 -2.242987e+05 -3.197958e+05 -3.197958e+05 -1.383822e+05 -1.490120e+05 -1.493682e+05 -1.597142e+05 -1.860716e+05 -5.664894e+04 -2.844012e+05 -2.773190e+05 -2.773190e+05 -2.817529e+05 -2.817529e+05 -3.370593e+05 -3.370593e+05 -1.342071e+05 -1.342071e+05 -3.275903e+05 -2.365805e+05 -4.839984e+04 -4.839984e+04 -9.851121e+04 -9.851121e+04 -7.020435e+04 -2.097608e+05 -7.545065e+04 -7.737954e+04 -2.178746e+05 -2.157708e+05 -3.936044e+05 -3.936044e+05 -3.555143e+05 -3.707153e+05 -2.561005e+04 -3.686240e+05 -3.686240e+05 -2.074408e+05 -2.004581e+05 -4.086707e+05 -3.884357e+05 -3.912422e+05 -1.886146e+05 -2.365607e+05 -6.924497e+04 -6.924497e+04 -1.676886e+05 -2.530463e+04 -3.444921e+05 -2.537175e+05 -4.519699e+04 -1.303948e+05 -1.303948e+05 -1.303948e+05 -1.262458e+05 -1.262458e+05 -1.611229e+05 -1.652422e+05 -1.162949e+05 -1.176871e+05 -2.597347e+05 -3.572940e+05 -8.747478e+04 -2.192467e+05 -4.075422e+05 -1.507741e+05 -2.682882e+05 -2.574597e+05 -2.574597e+05 -2.574597e+05 -1.791331e+05 -1.712416e+05 -9.145145e+04 -8.669008e+04 -3.021254e+05 -3.021254e+05 -2.616931e+05 -2.318700e+05 -2.318700e+05 -2.447409e+05 -2.447409e+05 -1.024092e+05 -2.464536e+05 -2.552599e+05 -2.552599e+05 -1.295802e+05 -1.295802e+05 -8.552454e+04 -1.177781e+05 -1.177781e+05 -1.188473e+05 -2.355544e+05 -2.355544e+05 -2.295833e+05 -2.295833e+05 -2.295833e+05 -2.474262e+05 -9.432882e+04 -2.549230e+04 -1.887872e+05 -1.887872e+05 -1.875986e+05 -1.659264e+04 -1.107932e+05 -9.997884e+04 -2.121980e+05 -3.225540e+05 -7.377099e+04 -6.983010e+04 -1.644251e+05 -1.644251e+05 -7.574346e+04 -7.574346e+04 -1.511830e+05 -2.219008e+05 -2.077359e+05 -2.077359e+05 -1.145945e+05 -1.052691e+05 -1.659264e+04 -1.152923e+05 -1.318378e+05 -1.318378e+05 -6.610065e+04 -2.093265e+05 -2.093265e+05 -2.303652e+05 -2.101361e+05 -2.101361e+05 -2.074592e+04 -2.074592e+04 -2.776570e+04 -1.218602e+05 -1.218602e+05 -1.218602e+05 -1.308363e+05 -2.213326e+05 -4.021099e+04 -7.188083e+03 -1.091496e+05 -1.091496e+05 -1.642570e+05 -1.642570e+05 -1.745289e+05 -1.471154e+04 -1.805388e+05 -1.898281e+05 -1.898281e+05 -1.179193e+05 -2.093831e+05 -2.093831e+05 -1.992588e+05 -1.841317e+05 -1.011973e+05 -1.661631e+05 -1.661631e+05 -1.661631e+05 -4.096441e+04 -5.376514e+04 -1.492913e+05 -1.362822e+05 -1.362822e+05 -1.405988e+05 -1.405988e+05 -1.405988e+05 -1.547063e+05 -1.957260e+05 -1.078266e+05 -1.078266e+05 -9.722311e+04 -1.848553e+05 -1.489940e+05 -1.489940e+05 -1.489940e+05 -1.520050e+05 -1.276902e+05 -1.217706e+05 1.245021e+04 -5.794272e+03 -1.568926e+04 -5.702884e+04 -1.080139e+05 -9.413625e+04 -8.087889e+04 -8.087889e+04 -1.579734e+05 -1.579734e+05 -1.769909e+05 -1.729359e+05 -7.576923e+04 -7.576923e+04 -7.576923e+04 -1.567290e+05 -5.831000e+02 -1.387868e+05 7.495203e+03 1.081475e+04 -9.134984e+04 -8.049015e+04 -1.509063e+05 -1.687979e+05 -1.502792e+05 -1.357844e+05 -1.357844e+05 -4.950317e+04 -4.950317e+04 -4.950317e+04 3.216204e+04 -9.136482e+04 -8.317889e+04 -8.120290e+04 -4.648282e+04 -7.340784e+04 -6.418962e+04 9.770689e+03 -1.763857e+04 -1.045085e+05 -1.045085e+05 -1.045085e+05 -1.236407e+05 -1.306244e+05 -4.438086e+04 -4.438086e+04 -8.485355e+04 -8.485355e+04 -2.187214e+04 -1.237914e+04 -6.448546e+04 -3.994051e+03 -5.828778e+04 4.354734e+04 -1.492525e+04 -1.492525e+04 9.956878e+03 3.666746e+04 3.666746e+04 4.787324e+02 4.787324e+02 1.674694e+04 1.674694e+04 -1.722973e+04 3.139948e+04 3.139948e+04 -2.949927e+03 4.867372e+04 6.503466e+04 7.290556e+04 1.309709e+04 1.309709e+04 1.309709e+04 -1.728251e+05 -1.728251e+05 -1.728251e+05 -1.754616e+05 -1.754616e+05 1.928988e+03 1.928988e+03 1.928988e+03 7.031342e+03 -1.807801e+05 -1.807801e+05 -1.782463e+05 -1.782463e+05 -2.503757e+05 -2.503757e+05 -2.503757e+05 -4.527204e+03 -4.527204e+03 -4.527204e+03 -7.625461e+03 -7.621408e+04 -7.621408e+04 -7.621408e+04 -6.968626e+04 -5.705165e+04 -5.705165e+04 -1.008161e+05 -1.008161e+05 -1.008161e+05 -1.192499e+05 -1.192499e+05 -1.192499e+05 -1.515495e+05 -1.515495e+05 -1.515495e+05 -1.593706e+05 -1.593706e+05 -1.593706e+05 -1.614753e+05 -2.996925e+04 -2.996925e+04 -2.996925e+04 -5.318729e+04 -5.318729e+04 -5.318729e+04 -1.972518e+04 -1.972518e+04 -1.972518e+04 -3.577895e+04 -3.577895e+04 -3.577895e+04 -4.232669e+04 -4.232669e+04 1.615391e+04 1.615391e+04 4.625076e+03 -8.480105e+03 3.696849e+04 3.696849e+04 3.696849e+04 -3.262462e+04 -3.262462e+04 -1.112135e+05 -1.112135e+05 -1.112135e+05 -8.162721e+04 -8.162721e+04 -8.162721e+04 -1.160743e+05 -1.160743e+05 -1.160743e+05 -1.205218e+05 -1.308042e+05 -1.308042e+05 -1.308042e+05 -1.288895e+05 -1.360548e+05 -1.360548e+05 -1.360548e+05 -1.114575e+05 -1.114575e+05 -1.114575e+05 -1.121481e+05 -1.147741e+05 -8.505585e+04 -8.505585e+04 -8.505585e+04 -1.349139e+05 -1.349139e+05 -1.214672e+05 -1.214672e+05 -1.177964e+05 -1.066777e+05 -1.066777e+05 -6.962036e+04 -6.962036e+04 -6.962036e+04 -5.738898e+04 -5.738898e+04 -5.908972e+04 -5.908972e+04 -5.908972e+04 -1.178240e+05 -3.664019e+04 -3.664019e+04 -3.664019e+04 -1.987586e+03 -4.465720e+03 6.460065e+04 6.460065e+04 2.487607e+04 2.487607e+04 -6.031321e+04 -6.031321e+04 -6.031321e+04 -5.552637e+04 -5.088680e+04 -1.701535e+05 -1.701535e+05 -1.139229e+05 -1.813299e+05 -1.369243e+05 -1.369243e+05 -1.369243e+05 -9.889663e+04 -1.560215e+05 -1.560215e+05 -1.127210e+05 -8.810522e+04 -8.810522e+04 -8.756489e+04 -4.062174e+04 -4.062174e+04 -7.974573e+04 -7.974573e+04 -7.974573e+04 -2.042724e+05 -2.042724e+05 -2.042724e+05 -1.630339e+05 -1.664887e+05 -4.157969e+04 -1.880168e+05 -1.880168e+05 -1.880168e+05 -1.944689e+05 -1.402444e+05 -1.402444e+05 -6.922576e+04 -6.922576e+04 -1.026636e+05 -1.555456e+05 -1.555456e+05 -1.470947e+05 -1.470947e+05 -9.824951e+04 -9.824951e+04 -9.824951e+04 -1.791002e+04 -1.791002e+04 6.123487e+01 6.123487e+01 -1.257800e+05 -8.921479e+04 -8.921479e+04 -8.921479e+04 -1.049093e+05 -1.049093e+05 -5.539983e+04 -5.539983e+04 -1.722630e+05 -1.722630e+05 -8.319230e+03 -8.319230e+03 -9.355874e+04 -7.296370e+04 -7.296370e+04 -7.286730e+04 -7.286730e+04 -1.506442e+05 -1.506442e+05 -1.506442e+05 -7.815299e+04 -7.815299e+04 -7.815299e+04 -1.584857e+05 -1.200223e+05 -1.056312e+05 -9.998239e+04 -9.998239e+04 -9.627517e+04 -1.437172e+05 -6.620177e+04 -6.620177e+04 -5.082273e+04 -5.082273e+04 -5.082273e+04 -1.634609e+05 -1.631763e+05 -1.631763e+05 -4.853369e+04 -4.853369e+04 -4.572986e+04 -7.332258e+04 -7.425619e+04 -7.425619e+04 -1.510603e+04 -1.510603e+04 -1.510603e+04 -4.157873e+04 -4.157873e+04 -2.847234e+03 -5.921959e+04 -9.773557e+04 -9.773557e+04 1.955573e+04 -1.066320e+05 -1.066320e+05 -9.119362e+04 -8.261391e+04 -8.261391e+04 -8.281003e+04 -2.723722e+04 -2.723722e+04 -1.140287e+05 -1.140287e+05 -4.050441e+04 -8.315003e+04 -8.315003e+04 -6.942236e+04 -6.942236e+04 -6.696905e+04 -4.415837e+04 -9.468017e+04 -9.468017e+04 -6.456701e+04 -7.181582e+04 -1.464217e+05 -1.464217e+05 -1.000108e+05 -8.657744e+04 -1.740298e+04 -1.740298e+04 -1.740298e+04 -2.640266e+04 -2.640266e+04 -2.640266e+04 -5.937283e+04 -5.937283e+04 1.822021e+03 1.822021e+03 1.822021e+03 -7.862520e+04 -1.692271e+04 -2.695907e+04 -2.477961e+04 -9.255589e+03 -9.255589e+03 -9.255589e+03 -6.393418e+04 -3.446491e+04 -3.446491e+04 -4.387993e+04 -4.387993e+04 -4.387993e+04 2.007576e+04 -7.094667e+04 -3.925080e+04 -3.925080e+04 -2.858414e+04 -2.858414e+04 -2.858414e+04 -3.222230e+04 -1.535507e+04 -1.027736e+05 -1.027736e+05 -1.027736e+05 -9.199387e+04 -9.199387e+04 -8.497639e+04 2.067712e+04 -2.233773e+04 -5.103808e+04 -2.228536e+04 -2.228536e+04 -2.236716e+04 -2.193439e+04 -2.193439e+04 9.188293e+03 9.188293e+03 9.188293e+03 -3.428802e+04 -3.481198e+04 -7.392615e+04 -1.311163e+04 -9.747789e+03 -1.853156e+04 -6.914125e+04 2.098149e+04 2.098149e+04 2.183797e+04 4.774933e+03 4.774933e+03 -2.606806e+04 1.625325e+04 1.625325e+04 1.625325e+04 5.937071e+03 5.937071e+03 -4.943982e+04 -4.943982e+04 -4.481037e+04 -6.288500e+03 -6.288500e+03 6.102301e+03 -3.373083e+04 -2.415401e+04 1.209482e+04 2.417990e+04 5.320739e+03 -1.723207e+04 2.417990e+04 4.193260e+04 -2.249577e+05 -2.249577e+05 -1.391277e+05 -1.391277e+05 -2.099172e+05 -2.099172e+05 -1.487030e+05 -1.650649e+05 -2.106389e+05 -2.184714e+05 -2.874701e+05 3.526921e+04 3.526921e+04 -1.479386e+04 -1.114338e+05 -1.170133e+05 9.663229e+03 9.663229e+03 -2.346108e+05 -2.245410e+05 -2.368273e+05 -2.259775e+05 -2.259775e+05 -2.259775e+05 -2.042901e+05 -2.042901e+05 -2.042901e+05 -2.348286e+05 -1.975552e+05 -1.975552e+05 -1.939897e+05 -1.939897e+05 -2.197931e+05 -2.092707e+05 -2.128203e+05 -4.206572e+04 3.330157e+04 4.961641e+04 6.430355e+04 -1.953259e+02 -1.953259e+02 -6.276676e+04 -1.837581e+05 -2.154278e+05 -1.941347e+05 -1.878323e+05 -1.878323e+05 -1.589101e+05 -1.262335e+05 -9.145868e+04 -6.686672e+04 -6.686672e+04 -4.307601e+04 3.894802e+03 -9.247995e+03 1.765143e+04 1.765143e+04 1.765143e+04 -4.787480e+04 -2.321509e+04 -3.122047e+04 -3.122047e+04 -1.366244e+05 -4.806860e+04 -4.806860e+04 -9.311862e+04 -1.301448e+05 -7.671526e+04 -7.671526e+04 1.442370e+04 1.442370e+04 1.442370e+04 1.138746e+04 1.138746e+04 1.833999e+04 -8.399143e+04 -7.406823e+04 -6.164291e+04 -3.521734e+04 1.734781e+03 -1.438317e+05 -1.079355e+05 -1.063484e+05 -3.655899e+04 -8.262371e+04 -2.126558e+04 -5.378730e+04 -2.547849e+04 -2.547849e+04 -5.189624e+03 -3.665651e+04 -2.662791e+04 -6.499613e+03 -3.398121e+04 1.536139e+04 5.793767e+03 5.793767e+03 8.316336e+03 -9.366196e+03 2.854488e+03 -3.323503e+04 -3.323503e+04 -4.344744e+04 -4.494734e+04 -1.535564e+04 -1.854108e+04 -5.440923e+02 -1.344687e+04 8.207522e+03 -3.611670e+04 5.452447e+03 5.452447e+03 5.452447e+03 6.499044e+03 1.312791e+03 1.312791e+03 -1.280149e+04 -1.280149e+04 -2.675241e+03 -4.221343e+03 -4.221343e+03 1.432104e+04 -1.087047e+04 -2.120417e+03 -7.177124e+03 1.521607e+04 1.034226e+04 1.955573e+04 1.955573e+04 1.736946e+04 -4.075863e+04 8.241984e+03 8.241984e+03 1.071490e+04 1.071490e+04 -3.391393e+03 1.520926e+04 1.372883e+04 1.080172e+04 1.080172e+04 -4.816124e+04 -4.816124e+04 -4.884478e+04 -3.326015e+04 6.455050e+03 -1.723906e+04 -4.635185e+04 -4.805749e+04 -2.022928e+05 -2.022928e+05 -2.022928e+05 -2.106323e+05 -2.220318e+05 -2.220318e+05 -2.220318e+05 -2.231705e+05 -9.581407e+04 -9.581407e+04 -1.765083e+05 -1.765083e+05 -8.895662e+04 -1.798973e+05 -1.798973e+05 -1.798973e+05 -9.673610e+04 -2.584902e+05 -2.584902e+05 -2.584902e+05 -2.556337e+05 -2.420846e+05 -2.326452e+05 -1.733162e+05 -1.733162e+05 -3.336050e+05 -1.213874e+05 -1.213874e+05 -1.213874e+05 -3.762769e+05 -3.762769e+05 -3.762769e+05 -3.907957e+05 -3.907957e+05 -4.193780e+05 -3.087626e+05 -2.125931e+05 -2.005862e+05 -2.005862e+05 -2.929627e+05 -3.540451e+05 -2.892486e+05 -2.892486e+05 -2.892486e+05 -2.548826e+05 -2.548826e+05 -4.193780e+05 -3.894718e+05 -3.863236e+05 -3.613196e+05 -4.278924e+05 -4.278924e+05 -3.647495e+05 -3.576109e+05 -3.098879e+05 -2.505110e+05 -2.314378e+05 -2.115370e+05 -2.115370e+05 -1.927648e+05 -1.781913e+05 -1.614177e+05 -1.614177e+05 -1.614177e+05 -1.452230e+05 -1.452230e+05 -1.100235e+05 -8.631884e+04 -8.631884e+04 -4.105993e+02 -7.023808e+04 -7.023808e+04 -7.023808e+04 -6.938878e+04 -6.938878e+04 -9.393842e+04 -9.393842e+04 -9.393842e+04 -1.833484e+05 -1.833484e+05 -6.591717e+04 1.346591e+04 1.346591e+04 1.346591e+04 -1.144312e+05 -1.144312e+05 -1.144312e+05 -1.092285e+05 -1.071050e+05 -1.777392e+04 -1.777392e+04 -1.777392e+04 -1.297334e+05 -1.297334e+05 -1.297334e+05 -1.863061e+05 -1.863061e+05 -1.863061e+05 -1.846575e+05 -1.846575e+05 -1.572867e+05 -1.572867e+05 -1.572867e+05 -9.402356e+04 -9.402356e+04 -1.686616e+05 -1.686616e+05 -1.686616e+05 -1.657826e+05 -1.657826e+05 -1.421831e+05 -1.421831e+05 -1.421831e+05 -2.348753e+04 -2.348753e+04 -2.348753e+04 -1.320940e+05 -1.320940e+05 -1.320940e+05 -1.420893e+05 -1.420893e+05 -2.776417e+04 -2.776417e+04 -2.776417e+04 -2.062428e+04 -2.062428e+04 5.148498e+04 2.666960e+03 2.666960e+03 2.666960e+03 7.844727e+03 -4.425627e+04 -4.425627e+04 -4.425627e+04 -3.765362e+04 -5.497243e+03 -5.497243e+03 -5.497243e+03 -1.003391e+05 -1.107525e+05 -8.612004e+04 -8.612004e+04 -8.612004e+04 -9.005412e+04 2.858900e+03 2.858900e+03 2.858900e+03 -1.565482e+05 -1.565482e+05 -1.565482e+05 -1.499328e+05 -1.499328e+05 -1.292382e+05 -1.292382e+05 -1.292382e+05 -1.314393e+05 -1.430799e+05 -1.430799e+05 -1.331632e+05 -1.331632e+05 -1.592374e+05 -1.556013e+05 -1.528595e+05 -9.606294e+04 -2.774629e+05 -1.594430e+05 -1.781913e+05 -1.785844e+05 -1.785844e+05 -1.374673e+04 -1.374673e+04 -1.374673e+04 -7.899622e+04 -7.899622e+04 2.317009e+04 2.317009e+04 2.317009e+04 -1.889663e+05 -1.889663e+05 -1.889663e+05 -5.714764e+04 -5.714764e+04 -1.184542e+05 -1.184542e+05 -8.422760e+04 -8.422760e+04 -8.422760e+04 -1.122262e+05 -1.122262e+05 -1.122262e+05 -1.255499e+05 -1.255499e+05 -1.255499e+05 -1.913060e+05 -2.828447e+04 -2.828447e+04 -1.026215e+05 -1.026215e+05 -8.857138e+04 -8.857138e+04 -1.454700e+05 -1.454700e+05 -1.510369e+05 -1.744825e+05 -1.744825e+05 -1.744825e+05 -1.737592e+05 -2.537481e+05 -2.350359e+05 -1.592532e+05 -5.298629e+04 -5.298629e+04 -5.298629e+04 -1.357585e+05 -1.357585e+05 -1.934091e+05 -1.934091e+05 -2.007086e+05 -2.007086e+05 -2.036836e+05 -2.036836e+05 -1.167516e+05 -1.167516e+05 -1.242149e+05 -1.708368e+05 -1.708368e+05 -6.531794e+04 -6.531794e+04 -6.531794e+04 -1.314852e+05 -1.240212e+05 -1.565839e+05 -7.670084e+04 -7.670084e+04 -7.670084e+04 -8.083116e+04 -8.083116e+04 -8.083116e+04 -1.005040e+05 -5.568831e+04 -5.568831e+04 -5.568831e+04 -4.672111e+04 -4.672111e+04 -4.672111e+04 -1.091989e+05 -1.091989e+05 -1.885732e+05 -1.812097e+05 -8.570459e+04 -8.570459e+04 -9.386211e+04 -9.386211e+04 -9.649890e+04 -9.235412e+04 -1.421142e+05 -1.063653e+05 -1.102679e+05 -1.102679e+05 -1.150462e+05 -7.679083e+04 -4.941534e+04 -4.941534e+04 -1.490942e+05 -1.531012e+05 -7.300403e+04 -7.300403e+04 -5.371343e+04 -9.676909e+04 -9.676909e+04 -1.024811e+05 -6.150401e+04 -6.150401e+04 -6.150401e+04 -9.245339e+04 -8.871230e+04 -6.549612e+04 -6.549612e+04 -6.549612e+04 -4.339143e+04 -4.339143e+04 -1.654270e+05 -1.055093e+05 -1.237639e+05 -1.237639e+05 -1.200214e+05 -2.814928e+04 -1.049967e+05 -1.049967e+05 -1.049967e+05 -1.024077e+05 -9.703403e+04 -1.937835e+04 -1.937835e+04 -1.937835e+04 -2.418527e+04 -4.074266e+04 -4.074266e+04 -4.049066e+04 -4.049066e+04 -7.829466e+04 -1.149675e+05 -1.049379e+05 -1.106420e+05 -7.220613e+04 -7.220613e+04 -7.220613e+04 -6.988662e+04 -6.988662e+04 -2.882856e+04 -2.882856e+04 -2.882856e+04 -9.726321e+04 -4.035975e+04 -3.662671e+04 -3.662671e+04 -6.473468e+04 -6.473468e+04 -8.031721e+04 -8.723635e+04 -5.137054e+04 -5.137054e+04 -5.137054e+04 -2.053443e+04 -2.053443e+04 -4.459206e+03 -4.459206e+03 -4.459206e+03 -4.835509e+04 -4.835509e+04 -5.452182e+04 -3.608115e+04 -3.608115e+04 1.030355e+04 1.030355e+04 4.992834e+03 4.992834e+03 -5.611610e+04 -6.565531e+04 -6.565531e+04 1.957016e+03 1.957016e+03 -8.142691e+04 -3.096467e+04 -3.484733e+04 -3.484733e+04 -5.238301e+04 -2.358286e+04 -2.358286e+04 -4.491177e+04 -4.491177e+04 -4.491177e+04 -3.917287e+04 -1.172757e+03 -1.172757e+03 -1.172757e+03 -1.322977e+04 -5.047106e+03 -9.392129e+04 -9.392129e+04 -9.392129e+04 -6.492765e+04 -3.202558e+04 -1.763338e+04 -2.926363e+04 -3.774663e+04 -5.289674e+04 -7.613479e+04 -1.246106e+04 -1.246106e+04 -2.537430e+03 2.126228e+04 2.126228e+04 2.126228e+04 -1.597741e+04 -1.551062e+04 -6.047478e+04 -1.133472e+04 -7.372236e+03 -7.340647e+03 -5.664879e+04 -8.105983e+02 -8.105983e+02 -1.294530e+04 -4.585622e+04 2.634988e+04 2.580306e+04 -3.575837e+04 -3.575837e+04 -2.574461e+04 7.887313e+03 2.634988e+04 1.219885e+04 1.219885e+04 1.219885e+04 1.396512e+04 -3.117503e+04 -7.863711e+03 2.931479e+04 1.968599e+04 1.968599e+04 1.968599e+04 1.417128e+04 1.417128e+04 2.931479e+04 -4.706333e+02 -4.706333e+02 2.643698e+04 -9.968204e+03 -9.968204e+03 -1.228182e+04 -2.933911e+02 3.201933e+04 3.201933e+04 3.201933e+04 8.556293e+03 1.394787e+04 1.394787e+04 2.707965e+04 -4.105993e+02 -4.105993e+02 3.470861e+04 2.880422e+04 3.053887e+04 2.189495e+04 2.189495e+04 1.853391e+04 3.814666e+04 3.783326e+04 3.783326e+04 4.301046e+04 3.470861e+04 3.470861e+04 4.071032e+04 -9.593173e+04 -1.695284e+05 -2.101385e+05 -2.349021e+05 -2.349021e+05 -1.146396e+05 -1.417194e+05 -1.417194e+05 -1.740282e+05 -1.762619e+05 -2.038685e+05 -2.038685e+05 -2.148564e+05 -1.794344e+05 -2.378433e+05 -2.264757e+05 -2.037530e+05 -6.893290e+04 -1.974115e+04 1.072035e+04 -1.232150e+05 -2.209026e+05 -2.198455e+05 -1.844938e+05 -4.138281e+04 -4.091009e+04 2.817510e+02 6.459514e+03 -1.244568e+05 4.124656e+03 -1.316149e+05 7.268666e+03 1.731880e+04 1.731880e+04 1.731880e+04 -9.246284e+03 -7.846950e+04 -7.846950e+04 -7.455790e+04 -1.282045e+05 -1.375826e+05 -1.129117e+05 -6.000635e+04 -1.079338e+05 -7.575291e+04 -4.417229e+04 -3.755964e+04 -3.755964e+04 -2.461547e+04 -1.218308e+04 -7.271592e+04 -4.538070e+04 -4.538070e+04 -6.970419e+04 -5.057158e+04 -7.730883e+03 -4.285343e+04 -1.098471e+04 -5.157704e+03 -3.601501e+04 -1.290527e+04 -1.600381e+04 -1.600381e+04 -3.242769e+04 -2.124326e+04 -2.401461e+04 8.249682e+03 1.122291e+04 1.122291e+04 -2.837678e+03 -4.001862e+04 2.373193e+03 2.373193e+03 -1.587653e+04 1.329475e+04 1.329475e+04 7.622071e+03 7.622071e+03 -6.038579e+03 3.459555e+02 -1.210850e+04 -1.401931e+04 1.817081e+04 1.817081e+04 1.817081e+04 -3.264462e+04 -1.258211e+03 4.082484e+03 1.725421e+04 -9.021963e+03 -3.286950e+04 -2.704502e+04 6.930059e+03 -2.102326e+04 4.560866e+02 4.560866e+02 -9.444899e+02 1.388739e+04 1.388739e+04 -6.162275e+03 -6.162275e+03 -8.593148e+03 -5.972765e+04 3.113108e+03 9.310253e+03 1.178928e+04 2.268865e+04 1.904926e+04 9.458780e+03 1.092823e+03 5.289720e+03 1.579954e+04 -1.252081e+04 -1.579217e+04 -1.893557e+04 -2.234846e+04 -2.618435e+04 -2.850427e+04 -3.073775e+04 -3.407047e+04 -3.748548e+04 -3.944058e+04 -3.911722e+04 -3.793219e+04 -3.714404e+04 -4.244306e+04 -4.479352e+04 -4.888872e+04 -4.759527e+04 -4.318411e+04 -4.431365e+04 -4.723113e+04 -4.693892e+04 -4.230357e+04 -4.478825e+04 -4.953515e+04 -4.432659e+04 -3.953923e+04 -3.720112e+04 -4.340190e+04 -4.599484e+04 -2.693031e+04 -2.875032e+04 -2.705075e+04 -2.631761e+04 -3.046727e+04 -3.164248e+04 -3.566705e+04 -2.332856e+04 -2.360429e+04 -2.358204e+04 -3.996423e+03 -6.807128e+03 -1.522998e+04 -1.158026e+04 -1.451961e+04 -2.125107e+04 -4.621870e+03 -1.142212e+04 -1.081217e+04 -8.299614e+03 -1.977174e+04 -5.829739e+03 -1.245068e+04 -2.233294e+04 -1.014360e+04 -4.960335e+03 -8.325401e+03 -6.964525e+03 -1.017987e+04 8.463081e+02 -1.807404e+04 2.633689e+03 7.903471e+03 -5.082330e+02 -2.186522e+04 -3.800495e+04 -3.095268e+04 -5.530639e+04 -4.282112e+04 -1.959794e+04 6.916169e+03 -1.880073e+03 -6.697819e+03 -4.816984e+03 -1.346066e+04 -9.787831e+03 -2.751491e+04 -5.556334e+04 -1.935840e+05 -3.540451e+05 -3.062896e+05 -2.687044e+05 -2.687044e+05 -2.349021e+05 -2.208748e+05 -2.148564e+05 -2.101385e+05 -2.101385e+05 -2.038685e+05 -1.919208e+05 -1.871313e+05 -1.833484e+05 -1.820362e+05 -1.757867e+05 -1.738491e+05 -1.695284e+05 -1.592374e+05 -1.552754e+05 -1.507069e+05 -1.440737e+05 -1.409344e+05 -1.375826e+05 -1.316347e+05 -1.316347e+05 -1.268586e+05 -1.202730e+05 -1.184542e+05 -1.146396e+05 -1.117158e+05 -1.079338e+05 -1.026215e+05 -9.739436e+04 -9.593173e+04 -9.359372e+04 -8.857138e+04 -8.675372e+04 -7.995629e+04 -7.846950e+04 -7.575291e+04 -7.271592e+04 -7.114122e+04 -6.511096e+04 -6.415196e+04 -6.000635e+04 -5.714764e+04 -5.511391e+04 -5.057158e+04 -4.956639e+04 -4.417229e+04 -4.417229e+04 -4.147288e+04 -3.755964e+04 -3.242769e+04 -3.242769e+04 -2.828447e+04 -2.461547e+04 -2.461547e+04 -2.124326e+04 -1.802869e+04 -1.600381e+04 -1.218308e+04 -1.218308e+04 -7.730883e+03 -7.730883e+03 -5.157704e+03 -2.837678e+03 3.459555e+02 2.373193e+03 4.082484e+03 8.249682e+03 8.249682e+03 1.122291e+04 1.328801e+04 1.525665e+04 1.830533e+04 1.830533e+04 -4.667055e+03 -4.667055e+03 -4.667055e+03 -1.334369e+03 6.043729e+04 6.043729e+04 6.043729e+04 2.574583e+04 2.574583e+04 2.574583e+04 3.547085e+04 -3.655562e+04 -3.655562e+04 -3.655562e+04 -4.410604e+04 -8.456358e+04 -8.456358e+04 -8.456358e+04 -9.363742e+04 -2.022339e+05 -2.022339e+05 -2.022339e+05 -1.999419e+05 -1.941833e+05 -1.740776e+05 -1.740776e+05 -1.740776e+05 -1.701799e+05 -4.072291e+02 -4.072291e+02 -4.072291e+02 -6.926410e+04 -6.926410e+04 -6.926410e+04 -6.568600e+04 -6.722946e+04 -2.625641e+05 -2.625641e+05 -2.625641e+05 -2.913197e+05 -2.642527e+04 -2.642527e+04 -2.642527e+04 -1.846014e+04 -1.846014e+04 -9.647104e+04 -9.647104e+04 -9.647104e+04 -1.009455e+05 -1.242690e+05 -1.025719e+05 -1.025719e+05 -1.025719e+05 -1.116111e+05 -1.667990e+05 -1.269965e+05 -1.269965e+05 -1.269965e+05 -1.342193e+05 -1.565709e+05 -1.565709e+05 -1.565709e+05 -1.837515e+04 -1.837515e+04 -6.536801e+04 -6.536801e+04 -1.266351e+05 -1.266351e+05 -1.266351e+05 -5.366199e+04 -1.550273e+05 -1.550273e+05 -1.550273e+05 -5.265339e+04 -2.785885e+05 -2.785885e+05 -3.819252e+05 -3.819252e+05 -2.503339e+05 -2.503339e+05 -2.503339e+05 -2.120649e+05 -2.120649e+05 -3.746755e+05 -3.746755e+05 -3.746755e+05 -3.498440e+05 -3.498440e+05 -1.469181e+04 -2.339389e+05 -2.339389e+05 -2.339389e+05 -2.285807e+05 -5.656716e+04 -5.656716e+04 -5.656716e+04 -5.971217e+04 -5.971217e+04 -1.030756e+05 -1.030756e+05 -1.030756e+05 -9.180936e+04 -9.180936e+04 -1.380271e+05 -1.380271e+05 -1.380271e+05 -1.406710e+05 -1.406710e+05 -1.631195e+05 -1.631195e+05 -1.631195e+05 -1.521014e+05 -1.521014e+05 -1.770161e+04 -1.770161e+04 -1.770161e+04 -1.608184e+04 -2.141218e+04 -2.141218e+04 -2.141218e+04 -2.928686e+04 -1.100407e+05 -1.100407e+05 -1.100407e+05 -1.191443e+05 -1.191443e+05 3.165177e+04 3.165177e+04 3.165177e+04 -3.007795e+04 -3.007795e+04 -3.007795e+04 -2.582744e+04 -2.582744e+04 1.488520e+04 1.488520e+04 1.488520e+04 3.179060e+04 3.179060e+04 -4.783758e+04 -4.783758e+04 -4.783758e+04 -3.687389e+04 -1.108539e+05 -1.108539e+05 -1.811002e+05 -1.811002e+05 -1.811002e+05 -5.431863e+04 -5.431863e+04 -4.239961e+04 -4.239961e+04 -3.551492e+04 -3.551492e+04 -3.551492e+04 -3.562828e+04 -2.959388e+05 -2.959388e+05 -2.959388e+05 -2.694342e+05 -3.426448e+04 -3.426448e+04 -2.816141e+05 -2.816141e+05 -2.816141e+05 -9.934486e+04 -9.934486e+04 -9.934486e+04 -1.087374e+05 -1.087374e+05 -3.890955e+05 -3.890955e+05 -3.890955e+05 -4.113303e+05 -4.113303e+05 -1.394050e+05 -1.394050e+05 -1.212648e+05 -1.389136e+05 -1.389136e+05 -1.389136e+05 -5.623286e+04 -5.623286e+04 -4.599484e+04 -1.174415e+05 -1.174415e+05 -1.174415e+05 -5.166737e+04 -9.756567e+04 -6.300693e+04 -1.376423e+05 -1.376423e+05 -1.376423e+05 -1.513105e+05 -1.513105e+05 -1.513105e+05 -1.286074e+05 -1.286074e+05 -1.286074e+05 -2.983868e+05 -2.983868e+05 -2.983868e+05 -2.628626e+05 -2.628