<?xml version="1.0"?>
 <VTKFile type="UnstructuredGrid" version="1.0" byte_order="LittleEndian" header_type="UInt64">
  <UnstructuredGrid>
    <FieldData>
     <DataArray type="Float64" Name="TimeValue" NumberOfTuples="1" format="ascii">
0.00014
     </DataArray>
    </FieldData>
   <Piece NumberOfPoints="3468" NumberOfCells="3392">
    <PointData>
     <DataArray type="Float64" Name="pointP" format="ascii">
9.323987e+04 9.334038e+04 9.353914e+04 9.391457e+04 9.397739e+04 9.430988e+04 9.430988e+04 9.448130e+04 9.473261e+04 9.502924e+04 9.502924e+04 9.527848e+04 9.535516e+04 9.568079e+04 9.568079e+04 9.583662e+04 9.599414e+04 9.619577e+04 9.645029e+04 9.652018e+04 9.659207e+04 9.688815e+04 9.701709e+04 9.701709e+04 9.726107e+04 9.736745e+04 9.741401e+04 9.753569e+04 9.778668e+04 9.784724e+04 9.795734e+04 9.806724e+04 9.816128e+04 9.824435e+04 9.834527e+04 9.845040e+04 9.860823e+04 9.873897e+04 9.882306e+04 9.890844e+04 9.899162e+04 9.902592e+04 9.915270e+04 9.927476e+04 9.934009e+04 9.936755e+04 9.948620e+04 9.955817e+04 9.959343e+04 9.966431e+04 9.973202e+04 9.981453e+04 9.993547e+04 9.993547e+04 1.000549e+05 1.000549e+05 1.001281e+05 1.002236e+05 1.002462e+05 1.002869e+05 1.003778e+05 1.004225e+05 1.004225e+05 1.004652e+05 1.005262e+05 1.005488e+05 1.006176e+05 1.006671e+05 1.006671e+05 1.007285e+05 1.007385e+05 1.007684e+05 1.008078e+05 1.008551e+05 1.008551e+05 1.008857e+05 1.009214e+05 1.009412e+05 1.009611e+05 1.009970e+05 1.010148e+05 1.010148e+05 1.010372e+05 1.010618e+05 1.010836e+05 1.010836e+05 1.010979e+05 1.011233e+05 1.011233e+05 1.011469e+05 1.011595e+05 1.011595e+05 1.011688e+05 1.011773e+05 1.011908e+05 1.011939e+05 1.012087e+05 1.012156e+05 1.012156e+05 1.012254e+05 1.012333e+05 1.012333e+05 1.012388e+05 1.012459e+05 1.012496e+05 1.012585e+05 1.012585e+05 1.012657e+05 1.012718e+05 1.012718e+05 1.012802e+05 1.012819e+05 1.012887e+05 1.012926e+05 1.012926e+05 1.013008e+05 1.013040e+05 1.013055e+05 1.013115e+05 1.013137e+05 1.013188e+05 1.013250e+05 1.013250e+05 1.013250e+05 1.013250e+05 1.013250e+05 1.012887e+05 1.012746e+05 1.012990e+05 1.014354e+05 1.021637e+05 1.021637e+05 1.027447e+05 1.027447e+05 1.006396e+05 1.006396e+05 1.006396e+05 1.007094e+05 1.007094e+05 1.013112e+05 1.013112e+05 9.994945e+04 9.994945e+04 9.994945e+04 1.003502e+05 1.003502e+05 1.010517e+05 1.010517e+05 1.010517e+05 1.012981e+05 1.017427e+05 1.017427e+05 1.015956e+05 1.012806e+05 1.012806e+05 1.012806e+05 1.012852e+05 1.012852e+05 1.012767e+05 1.012918e+05 1.012918e+05 1.012848e+05 1.013127e+05 1.012975e+05 1.012952e+05 1.013141e+05 1.013141e+05 1.013179e+05 1.013179e+05 1.013200e+05 1.013219e+05 1.000891e+05 1.000891e+05 1.000891e+05 9.991468e+04 9.991468e+04 9.972915e+04 9.767709e+04 9.767709e+04 9.767709e+04 9.766132e+04 9.770380e+04 1.004665e+05 9.933264e+04 9.933264e+04 9.941389e+04 9.780441e+04 9.780441e+04 9.785065e+04 9.933685e+04 9.933685e+04 9.933685e+04 9.304512e+04 9.304512e+04 9.304512e+04 9.385531e+04 9.385531e+04 9.385531e+04 1.006242e+05 1.006242e+05 1.006242e+05 9.632527e+04 9.632527e+04 9.632527e+04 9.869073e+04 9.869073e+04 9.869073e+04 9.873067e+04 9.587038e+04 9.587038e+04 9.764429e+04 9.764429e+04 9.764429e+04 9.328885e+04 9.352654e+04 9.752339e+04 9.752339e+04 1.001092e+05 1.001092e+05 1.001092e+05 1.002975e+05 1.002975e+05 9.999157e+04 1.002373e+05 1.002373e+05 1.016573e+05 1.016573e+05 1.016573e+05 1.008376e+05 1.008376e+05 9.695612e+04 9.695612e+04 9.695612e+04 9.749515e+04 9.517138e+04 9.636161e+04 9.850492e+04 9.850492e+04 9.801956e+04 9.801956e+04 9.801956e+04 9.574090e+04 9.516623e+04 9.516623e+04 9.673716e+04 9.673716e+04 9.673716e+04 1.004062e+05 1.004062e+05 1.004062e+05 9.758123e+04 9.758123e+04 9.758123e+04 1.017126e+05 1.012426e+05 9.335773e+04 9.335773e+04 9.335773e+04 9.384581e+04 9.932348e+04 9.932348e+04 9.398724e+04 9.825865e+04 9.825865e+04 9.825865e+04 9.357459e+04 9.357459e+04 9.835202e+04 9.835202e+04 9.716083e+04 9.716083e+04 9.716083e+04 9.530663e+04 9.530663e+04 9.530663e+04 9.541360e+04 9.541360e+04 9.541360e+04 9.377282e+04 9.377282e+04 9.850677e+04 9.850677e+04 9.433008e+04 9.433008e+04 9.433008e+04 9.844397e+04 9.897369e+04 9.897369e+04 9.897369e+04 9.397054e+04 9.849376e+04 9.849376e+04 9.687781e+04 9.687781e+04 9.687781e+04 9.945170e+04 9.945170e+04 9.945170e+04 9.549384e+04 9.587986e+04 9.587986e+04 9.587986e+04 9.476131e+04 9.476131e+04 9.476131e+04 9.357320e+04 9.364476e+04 9.652738e+04 9.652738e+04 9.652738e+04 9.676766e+04 9.676766e+04 9.939179e+04 9.939179e+04 9.939179e+04 9.413947e+04 9.413947e+04 9.413947e+04 9.418491e+04 9.423835e+04 9.412104e+04 9.412104e+04 9.890774e+04 9.890774e+04 9.890774e+04 9.474372e+04 9.474372e+04 9.645857e+04 9.645857e+04 9.322859e+04 9.453366e+04 9.453366e+04 9.569386e+04 9.569386e+04 9.569386e+04 9.792782e+04 9.452766e+04 9.532355e+04 9.532355e+04 9.836618e+04 9.836618e+04 9.799681e+04 9.799681e+04 9.799681e+04 9.689091e+04 9.689091e+04 1.001791e+05 1.001791e+05 1.001791e+05 9.956565e+04 9.956565e+04 9.956565e+04 9.754218e+04 9.399314e+04 9.918858e+04 9.918858e+04 9.918858e+04 9.651989e+04 9.651989e+04 9.651989e+04 9.591885e+04 9.588717e+04 9.399314e+04 9.689969e+04 9.974733e+04 9.974733e+04 9.974733e+04 9.727670e+04 9.727670e+04 9.998547e+04 9.998547e+04 9.998547e+04 9.749518e+04 9.749518e+04 9.749518e+04 9.718334e+04 1.002969e+05 1.002969e+05 1.002969e+05 9.750382e+04 9.641978e+04 9.641978e+04 9.700761e+04 9.891337e+04 9.891337e+04 9.717456e+04 9.785380e+04 9.785380e+04 9.802443e+04 9.802443e+04 9.773625e+04 9.684386e+04 9.950188e+04 9.950188e+04 9.950188e+04 9.812325e+04 1.002799e+05 1.002799e+05 9.528903e+04 9.821868e+04 9.821868e+04 9.822780e+04 1.008048e+05 1.008048e+05 1.008048e+05 1.001067e+05 1.001067e+05 9.846148e+04 9.846148e+04 9.866415e+04 9.866415e+04 9.732327e+04 9.992379e+04 9.992379e+04 9.992379e+04 9.925301e+04 9.925301e+04 9.925301e+04 9.636161e+04 9.995405e+04 9.995405e+04 9.923166e+04 9.918076e+04 9.571484e+04 9.714716e+04 9.774106e+04 9.774106e+04 1.004147e+05 1.004147e+05 1.004147e+05 9.871010e+04 1.009749e+05 1.009749e+05 1.009749e+05 9.913127e+04 9.913127e+04 9.880199e+04 9.763813e+04 1.007947e+05 1.007947e+05 1.007947e+05 1.005044e+05 1.005044e+05 1.005044e+05 1.006566e+05 1.006566e+05 1.003268e+05 1.003268e+05 1.002104e+05 1.002104e+05 1.001052e+05 9.816976e+04 9.816976e+04 9.880050e+04 9.880050e+04 9.954796e+04 9.954796e+04 9.808923e+04 1.009582e+05 1.010169e+05 1.010169e+05 1.010169e+05 9.943130e+04 1.005246e+05 1.005246e+05 9.971365e+04 9.971365e+04 1.001679e+05 9.834783e+04 9.947351e+04 1.000994e+05 1.000994e+05 1.002512e+05 1.002512e+05 9.919335e+04 1.010617e+05 1.010617e+05 1.010617e+05 1.011454e+05 1.011454e+05 1.011454e+05 9.974867e+04 9.974867e+04 9.974867e+04 9.949434e+04 9.949434e+04 1.012867e+05 1.012867e+05 1.012867e+05 1.010437e+05 1.010437e+05 1.010437e+05 1.005039e+05 1.011009e+05 1.011009e+05 1.011009e+05 1.006094e+05 1.006094e+05 9.981163e+04 1.010553e+05 1.010553e+05 1.012242e+05 1.012242e+05 1.012242e+05 9.994249e+04 9.994249e+04 1.004036e+05 1.004036e+05 1.007953e+05 1.007953e+05 1.007953e+05 1.012064e+05 1.012064e+05 1.012064e+05 1.007598e+05 1.012116e+05 1.012116e+05 1.012116e+05 1.012933e+05 1.012933e+05 1.012933e+05 1.009185e+05 1.009185e+05 1.009185e+05 1.008082e+05 1.009433e+05 1.009433e+05 1.008360e+05 1.003962e+05 1.003962e+05 1.012917e+05 1.009570e+05 1.009570e+05 1.009570e+05 1.012258e+05 1.012258e+05 1.012258e+05 1.009512e+05 1.009512e+05 1.009512e+05 1.011198e+05 1.011198e+05 1.011198e+05 1.010358e+05 1.010358e+05 1.010785e+05 1.010785e+05 1.012012e+05 1.012012e+05 1.011783e+05 1.011783e+05 1.011783e+05 1.009150e+05 1.009150e+05 1.008353e+05 1.008353e+05 1.012056e+05 1.012122e+05 1.012122e+05 1.010309e+05 1.010309e+05 1.010767e+05 1.012313e+05 1.012313e+05 1.012313e+05 1.011182e+05 1.011182e+05 1.011902e+05 1.011902e+05 1.010880e+05 1.014272e+05 1.014272e+05 1.014272e+05 1.021963e+05 1.021963e+05 1.021963e+05 1.012418e+05 1.012418e+05 1.012579e+05 1.012579e+05 1.012579e+05 1.012222e+05 1.012740e+05 1.012740e+05 1.012439e+05 1.017266e+05 9.575882e+04 1.007540e+05 9.558986e+04 9.849669e+04 1.022563e+05 1.013045e+05 1.013045e+05 1.013045e+05 1.011639e+05 1.011639e+05 1.009795e+05 1.009959e+05 1.013095e+05 1.011133e+05 1.020135e+05 1.005281e+05 1.012680e+05 1.012680e+05 1.012421e+05 1.012421e+05 1.012421e+05 1.012425e+05 1.011250e+05 1.009714e+05 1.009714e+05 1.010131e+05 1.010131e+05 1.010131e+05 1.010162e+05 1.001484e+05 1.000169e+05 9.491391e+04 9.517604e+04 9.517604e+04 9.324591e+04 9.747934e+04 9.747934e+04 1.006645e+05 1.007841e+05 1.012660e+05 1.012660e+05 1.012660e+05 1.012865e+05 1.012865e+05 9.364944e+04 9.364944e+04 9.630301e+04 9.484859e+04 9.383820e+04 9.386174e+04 9.432307e+04 9.432307e+04 9.432307e+04 9.687856e+04 9.493030e+04 9.536521e+04 9.820222e+04 9.708682e+04 9.642908e+04 9.642908e+04 9.642908e+04 9.623531e+04 9.623531e+04 9.366844e+04 9.401319e+04 9.545134e+04 9.347985e+04 9.680241e+04 9.478416e+04 9.453506e+04 9.453506e+04 9.414916e+04 9.591891e+04 9.591891e+04 9.568362e+04 9.452238e+04 9.593098e+04 9.721921e+04 9.728684e+04 9.755663e+04 9.563708e+04 9.563708e+04 9.563708e+04 9.508455e+04 9.508455e+04 9.659603e+04 9.665120e+04 9.523596e+04 9.498450e+04 9.604683e+04 9.422640e+04 9.468516e+04 9.911044e+04 9.670153e+04 9.511274e+04 9.718076e+04 9.570673e+04 9.613714e+04 9.809046e+04 9.803129e+04 9.859087e+04 9.590304e+04 9.439623e+04 9.989903e+04 9.989903e+04 9.502726e+04 9.866025e+04 9.866025e+04 9.698630e+04 9.698630e+04 9.857772e+04 1.000455e+05 9.970225e+04 9.970225e+04 9.970225e+04 9.603439e+04 9.617477e+04 9.617477e+04 9.995506e+04 1.002665e+05 9.710066e+04 9.959301e+04 9.956283e+04 9.956283e+04 9.872559e+04 9.794666e+04 9.818758e+04 9.818758e+04 9.888892e+04 9.883280e+04 9.899589e+04 9.959557e+04 9.959138e+04 1.004468e+05 1.004468e+05 9.791998e+04 9.689143e+04 9.874606e+04 9.874606e+04 9.874606e+04 9.925346e+04 9.962852e+04 9.725849e+04 9.864381e+04 1.001390e+05 1.001390e+05 1.001390e+05 9.830518e+04 9.830518e+04 9.980602e+04 9.919149e+04 1.005104e+05 9.901814e+04 1.003779e+05 1.006106e+05 1.006106e+05 1.001948e+05 1.000633e+05 9.929641e+04 9.977285e+04 9.980339e+04 9.948049e+04 1.005333e+05 1.005333e+05 1.005333e+05 1.002482e+05 9.884236e+04 9.933906e+04 1.005707e+05 9.840471e+04 9.905387e+04 9.905387e+04 1.007072e+05 1.006770e+05 1.011306e+05 1.011306e+05 9.917183e+04 1.009425e+05 1.009425e+05 1.009082e+05 1.006070e+05 1.006070e+05 1.008928e+05 1.008928e+05 9.966655e+04 1.007371e+05 1.009548e+05 1.009851e+05 1.009851e+05 9.947343e+04 1.003638e+05 1.003638e+05 1.006609e+05 1.006609e+05 1.006609e+05 9.991141e+04 9.991141e+04 1.002049e+05 1.008478e+05 1.008478e+05 1.011121e+05 1.010762e+05 1.009441e+05 1.003598e+05 1.007577e+05 1.004116e+05 1.004869e+05 1.006305e+05 1.006029e+05 1.010026e+05 1.011760e+05 1.011760e+05 1.011760e+05 1.009820e+05 1.010347e+05 1.010809e+05 1.010809e+05 1.010809e+05 1.008514e+05 1.007237e+05 1.007237e+05 1.007237e+05 1.011577e+05 1.001944e+05 1.011834e+05 1.011834e+05 1.010172e+05 1.004077e+05 9.989563e+04 1.003222e+05 1.007336e+05 1.012825e+05 1.012825e+05 1.008232e+05 1.005289e+05 1.010969e+05 1.002748e+05 1.008997e+05 1.008997e+05 1.008997e+05 1.011471e+05 1.011165e+05 1.011165e+05 1.011165e+05 1.012051e+05 1.012051e+05 1.011622e+05 1.007945e+05 1.012489e+05 1.012465e+05 1.010540e+05 1.010984e+05 1.010984e+05 1.012360e+05 1.012360e+05 1.004630e+05 1.011313e+05 1.012171e+05 1.012171e+05 1.011698e+05 1.011698e+05 9.986671e+04 1.010661e+05 1.009201e+05 1.012613e+05 1.012613e+05 1.012531e+05 1.012531e+05 1.012531e+05 1.012635e+05 1.012401e+05 1.012401e+05 1.010257e+05 1.008335e+05 1.008853e+05 1.011426e+05 1.011517e+05 1.011517e+05 1.012590e+05 1.010985e+05 1.011937e+05 1.011415e+05 1.011660e+05 1.011660e+05 1.011149e+05 1.010818e+05 1.012101e+05 1.012101e+05 1.012450e+05 1.012450e+05 1.011773e+05 1.011773e+05 1.013103e+05 1.012786e+05 1.013055e+05 1.012926e+05 1.007965e+05 1.007965e+05 1.012173e+05 1.012693e+05 1.012693e+05 1.012721e+05 1.012721e+05 1.012963e+05 1.012963e+05 1.012505e+05 1.008970e+05 1.008699e+05 1.012048e+05 1.011451e+05 1.012704e+05 1.011947e+05 1.011885e+05 1.012752e+05 1.012752e+05 1.006371e+05 1.012300e+05 1.012300e+05 1.012300e+05 1.012326e+05 1.013036e+05 1.012978e+05 1.011354e+05 1.009103e+05 1.011780e+05 1.011732e+05 1.012599e+05 1.013007e+05 1.010641e+05 1.013054e+05 1.012798e+05 1.011889e+05 1.012659e+05 1.012157e+05 1.012869e+05 1.012663e+05 1.012578e+05 1.012540e+05 1.012609e+05 1.011414e+05 1.011843e+05 1.012343e+05 1.012228e+05 1.012228e+05 1.012573e+05 1.012573e+05 1.012890e+05 1.012890e+05 1.012397e+05 1.012782e+05 1.012698e+05 1.013250e+05 1.013250e+05 1.013250e+05 1.013250e+05 1.013121e+05 1.012914e+05 1.012760e+05 1.012987e+05 1.014360e+05 1.021723e+05 1.037037e+05 1.012950e+05 1.012950e+05 1.012950e+05 1.012606e+05 1.014300e+05 1.011482e+05 1.011827e+05 1.012619e+05 1.012619e+05 1.012619e+05 1.012602e+05 1.010831e+05 1.010831e+05 1.010831e+05 1.010916e+05 1.023114e+05 1.023114e+05 1.023114e+05 1.022743e+05 1.022743e+05 1.012883e+05 1.012883e+05 1.012883e+05 1.012971e+05 1.012971e+05 1.019169e+05 1.012829e+05 1.012829e+05 1.012916e+05 1.012735e+05 1.012735e+05 1.012750e+05 1.010811e+05 1.013033e+05 1.013033e+05 1.013033e+05 1.013146e+05 1.013146e+05 1.013146e+05 1.013169e+05 1.012926e+05 1.012959e+05 1.012959e+05 1.012959e+05 1.022077e+05 1.025788e+05 1.022077e+05 1.022077e+05 1.012980e+05 1.013015e+05 1.034989e+05 1.039346e+05 1.034989e+05 1.034989e+05 1.012203e+05 1.012145e+05 1.012145e+05 1.012145e+05 1.012227e+05 1.013254e+05 1.013254e+05 1.013121e+05 1.048511e+05 1.012940e+05 1.012940e+05 1.013062e+05 1.011990e+05 1.011990e+05 1.030432e+05 9.779261e+04 9.779261e+04 9.779261e+04 9.784724e+04 1.001942e+05 1.001942e+05 1.001942e+05 1.002410e+05 1.002410e+05 1.010906e+05 1.010906e+05 1.010906e+05 1.010657e+05 1.010657e+05 9.953619e+04 9.953619e+04 9.953619e+04 9.942471e+04 1.010208e+05 1.010208e+05 1.010208e+05 1.010314e+05 1.002503e+05 1.002503e+05 1.002503e+05 1.002736e+05 1.002902e+05 1.002952e+05 9.866071e+04 9.866071e+04 9.866071e+04 9.861481e+04 9.861780e+04 9.955817e+04 9.955817e+04 9.984089e+04 9.984089e+04 9.984089e+04 9.837786e+04 9.837786e+04 9.837786e+04 9.771185e+04 9.771185e+04 9.771185e+04 1.009642e+05 1.009642e+05 1.008596e+05 1.008596e+05 1.011527e+05 1.011527e+05 1.011527e+05 1.011471e+05 9.573698e+04 9.573698e+04 9.573698e+04 1.003834e+05 1.003834e+05 1.003834e+05 9.791658e+04 9.791658e+04 9.791658e+04 9.976655e+04 9.976655e+04 9.976655e+04 9.708227e+04 9.708227e+04 9.708227e+04 9.677220e+04 9.677220e+04 9.556328e+04 9.556328e+04 9.463484e+04 9.463484e+04 9.463484e+04 9.746569e+04 9.746569e+04 9.746569e+04 9.903581e+04 9.903581e+04 9.903581e+04 9.849292e+04 9.742720e+04 1.010003e+05 1.010003e+05 1.010003e+05 1.005697e+05 1.005697e+05 1.005697e+05 9.996203e+04 9.996203e+04 1.018340e+05 1.018340e+05 1.016659e+05 1.005635e+05 1.005635e+05 1.005635e+05 1.004951e+05 1.004951e+05 1.004951e+05 9.829579e+04 9.857872e+04 9.968451e+04 9.968451e+04 9.968451e+04 1.009242e+05 1.009242e+05 1.009242e+05 9.979934e+04 9.695354e+04 9.749775e+04 9.749775e+04 9.749775e+04 9.471254e+04 9.471254e+04 9.471254e+04 9.815096e+04 9.815096e+04 9.852997e+04 9.852997e+04 9.952510e+04 9.991214e+04 9.991214e+04 1.010024e+05 1.010024e+05 1.010024e+05 1.009262e+05 1.010768e+05 1.010768e+05 1.012742e+05 1.012742e+05 1.012742e+05 9.398431e+04 9.624826e+04 9.624826e+04 9.624826e+04 9.480534e+04 9.480534e+04 9.455963e+04 9.899162e+04 9.899162e+04 9.503113e+04 9.503113e+04 9.799666e+04 9.799666e+04 9.799666e+04 9.441876e+04 9.532654e+04 9.532654e+04 9.532654e+04 9.685938e+04 9.685938e+04 9.685938e+04 9.558970e+04 9.558970e+04 9.741680e+04 9.741680e+04 9.741680e+04 9.755877e+04 9.595522e+04 9.595522e+04 9.595522e+04 9.693873e+04 9.693873e+04 9.693873e+04 9.412184e+04 9.412184e+04 9.412184e+04 9.446053e+04 9.446053e+04 9.449383e+04 9.625033e+04 9.625033e+04 9.625684e+04 9.625684e+04 9.518431e+04 9.518431e+04 9.660230e+04 9.449383e+04 9.449383e+04 9.886351e+04 9.886351e+04 9.886351e+04 9.569238e+04 9.484896e+04 9.479159e+04 9.724052e+04 9.724052e+04 9.906642e+04 9.906642e+04 9.906642e+04 9.879291e+04 9.840148e+04 1.006441e+05 1.006441e+05 1.006441e+05 9.494848e+04 9.957138e+04 9.957138e+04 9.957138e+04 9.791462e+04 9.791462e+04 9.791462e+04 9.587814e+04 1.007360e+05 1.007360e+05 1.007360e+05 9.911381e+04 9.864276e+04 9.864276e+04 9.864276e+04 9.885964e+04 9.525962e+04 9.474719e+04 1.008312e+05 1.008312e+05 1.008312e+05 9.644046e+04 9.644046e+04 9.534280e+04 9.534280e+04 9.586929e+04 9.618912e+04 9.983918e+04 9.656868e+04 9.806939e+04 9.806939e+04 1.000220e+05 1.000220e+05 1.000220e+05 1.009116e+05 1.009116e+05 1.009116e+05 9.942202e+04 9.942202e+04 9.942202e+04 1.008351e+05 1.008351e+05 9.792251e+04 9.792251e+04 9.826567e+04 9.826567e+04 9.915697e+04 9.915697e+04 9.915697e+04 9.681708e+04 9.681708e+04 9.566556e+04 9.566556e+04 9.902413e+04 9.902413e+04 9.594989e+04 9.594989e+04 9.594989e+04 9.757858e+04 1.008916e+05 1.008916e+05 9.961873e+04 9.935656e+04 9.935656e+04 9.935656e+04 9.633244e+04 9.731415e+04 1.000223e+05 1.000223e+05 1.000223e+05 1.001325e+05 1.001325e+05 9.889790e+04 9.889790e+04 9.889790e+04 9.646329e+04 1.003825e+05 1.003825e+05 1.003825e+05 9.878154e+04 9.921800e+04 1.001966e+05 1.005633e+05 1.005633e+05 1.006409e+05 1.006409e+05 9.933689e+04 1.000646e+05 1.000646e+05 1.000646e+05 9.960628e+04 9.791764e+04 9.791764e+04 1.001757e+05 1.001757e+05 1.003535e+05 1.003535e+05 1.010471e+05 1.010471e+05 9.907850e+04 9.742720e+04 1.004992e+05 1.004992e+05 1.004992e+05 9.814958e+04 9.838310e+04 1.011390e+05 1.011390e+05 1.011390e+05 1.000321e+05 9.903264e+04 9.903264e+04 9.877415e+04 1.012020e+05 1.012020e+05 1.012020e+05 1.002355e+05 9.864038e+04 9.897007e+04 1.011504e+05 1.011504e+05 1.007894e+05 1.007894e+05 1.007894e+05 1.008451e+05 1.008451e+05 1.008451e+05 9.929850e+04 9.973431e+04 1.012086e+05 1.012086e+05 1.012086e+05 1.005888e+05 1.005888e+05 1.005888e+05 1.005684e+05 1.011957e+05 1.011957e+05 1.011957e+05 1.001753e+05 1.013835e+05 1.006206e+05 1.008966e+05 1.008966e+05 1.000159e+05 1.000700e+05 1.002107e+05 1.012301e+05 1.012301e+05 1.012301e+05 1.011577e+05 1.012840e+05 1.012840e+05 1.012840e+05 1.009432e+05 1.007394e+05 1.007394e+05 1.007084e+05 1.007298e+05 1.013357e+05 1.013357e+05 1.002918e+05 1.002918e+05 1.011685e+05 1.011204e+05 1.011204e+05 1.011426e+05 1.007503e+05 1.007503e+05 1.006005e+05 1.005040e+05 1.012609e+05 1.012609e+05 1.014470e+05 1.012119e+05 1.012119e+05 1.009181e+05 1.013106e+05 1.011255e+05 1.011255e+05 1.011712e+05 1.011902e+05 1.011902e+05 1.011902e+05 1.010811e+05 1.029464e+05 1.029464e+05 1.010904e+05 1.010904e+05 1.013030e+05 1.012319e+05 1.012803e+05 1.012803e+05 1.012235e+05 1.012384e+05 1.012384e+05 1.009479e+05 1.001424e+05 1.005161e+05 1.005452e+05 1.005452e+05 1.012485e+05 1.007013e+05 1.005033e+05 1.005033e+05 9.398431e+04 9.398431e+04 1.009341e+05 9.975727e+04 1.011619e+05 1.011619e+05 1.008853e+05 1.006327e+05 1.002642e+05 1.002642e+05 9.856055e+04 9.966161e+04 9.619577e+04 1.008078e+05 1.012585e+05 1.012819e+05 1.012819e+05 1.012887e+05 9.397739e+04 9.397739e+04 9.430988e+04 9.454185e+04 9.454185e+04 9.323987e+04 9.333073e+04 9.323987e+04 9.412857e+04 9.629429e+04 9.344157e+04 9.376645e+04 9.376645e+04 9.376645e+04 9.502924e+04 9.536981e+04 9.536981e+04 9.536981e+04 9.527848e+04 9.527848e+04 9.355362e+04 9.652018e+04 9.652018e+04 9.568079e+04 9.583662e+04 9.488672e+04 9.488672e+04 9.599414e+04 9.806724e+04 9.664682e+04 9.590222e+04 9.701709e+04 9.367918e+04 9.367918e+04 9.559558e+04 9.344401e+04 9.605220e+04 9.444999e+04 9.412667e+04 9.736745e+04 9.736745e+04 9.816128e+04 9.726107e+04 9.821403e+04 9.653971e+04 9.562518e+04 9.521906e+04 9.707663e+04 9.757599e+04 9.757599e+04 9.757599e+04 9.760860e+04 9.609521e+04 9.626820e+04 9.571474e+04 9.571474e+04 9.679538e+04 9.934009e+04 9.934009e+04 9.678508e+04 9.539882e+04 9.698738e+04 9.759303e+04 9.882306e+04 9.882306e+04 9.656603e+04 9.656603e+04 9.656603e+04 9.830012e+04 9.830012e+04 9.635654e+04 9.834527e+04 9.767826e+04 9.922892e+04 9.922892e+04 9.922892e+04 9.686401e+04 9.914922e+04 9.914922e+04 9.814542e+04 9.772051e+04 1.001281e+05 1.001281e+05 9.845040e+04 9.860823e+04 9.860823e+04 1.000549e+05 9.873897e+04 9.595184e+04 9.818033e+04 9.901534e+04 9.855497e+04 9.855497e+04 9.985780e+04 9.985780e+04 9.985780e+04 9.718548e+04 9.966431e+04 9.948620e+04 9.712002e+04 9.737473e+04 9.860322e+04 9.869697e+04 9.941103e+04 9.957194e+04 9.957194e+04 9.820158e+04 9.820158e+04 9.789152e+04 9.786304e+04 9.656205e+04 9.841764e+04 9.890742e+04 9.739028e+04 9.799039e+04 9.993547e+04 9.971524e+04 9.971524e+04 9.971524e+04 1.003146e+05 9.782019e+04 9.936575e+04 9.936575e+04 1.004225e+05 9.982277e+04 1.006176e+05 1.006176e+05 1.004016e+05 9.992272e+04 1.000350e+05 1.000350e+05 1.007285e+05 1.005262e+05 1.005262e+05 1.001191e+05 9.982301e+04 1.004652e+05 1.006097e+05 9.954025e+04 9.918289e+04 9.930394e+04 9.997330e+04 9.917452e+04 1.007547e+05 1.005897e+05 1.004994e+05 1.005582e+05 1.004372e+05 9.974273e+04 1.009214e+05 1.009214e+05 1.009412e+05 1.009371e+05 9.874618e+04 1.006569e+05 1.006569e+05 1.009565e+05 1.009565e+05 1.009642e+05 9.989752e+04 1.010833e+05 1.000607e+05 1.006816e+05 1.008071e+05 9.998958e+04 1.008551e+05 9.950852e+04 1.007180e+05 1.007180e+05 1.009970e+05 1.004047e+05 1.011908e+05 1.011908e+05 1.011595e+05 1.010100e+05 1.004455e+05 9.931195e+04 1.011469e+05 1.002618e+05 1.010713e+05 1.010713e+05 1.010836e+05 1.010618e+05 1.009604e+05 1.011233e+05 1.011277e+05 1.005747e+05 1.011365e+05 1.008827e+05 1.008827e+05 1.008022e+05 1.011688e+05 1.011773e+05 9.827499e+04 1.012156e+05 1.010324e+05 1.012333e+05 1.007388e+05 1.012620e+05 1.012620e+05 1.010979e+05 1.011520e+05 1.006223e+05 1.006223e+05 1.012522e+05 1.012522e+05 1.012522e+05 1.008420e+05 1.011920e+05 1.009926e+05 9.957251e+04 1.010922e+05 1.012087e+05 9.940269e+04 1.012254e+05 1.012254e+05 1.011757e+05 1.003512e+05 1.011892e+05 1.011173e+05 1.012058e+05 1.011250e+05 1.012068e+05 1.012180e+05 1.012180e+05 1.009691e+05 1.009624e+05 1.012634e+05 1.011521e+05 1.010038e+05 1.010038e+05 1.010038e+05 1.011000e+05 1.012655e+05 1.012359e+05 1.012433e+05 1.012433e+05 1.012433e+05 1.012718e+05 1.011121e+05 1.011121e+05 1.012545e+05 1.012599e+05 1.012178e+05 1.012459e+05 1.012267e+05 1.012818e+05 1.013115e+05 1.012672e+05 1.012643e+05 1.010225e+05 1.012738e+05 1.012872e+05 1.010676e+05 1.011827e+05 1.011827e+05 1.012319e+05 1.012319e+05 1.012421e+05 1.012214e+05 1.012588e+05 1.011647e+05 1.012180e+05 1.012438e+05 1.012478e+05 1.013040e+05 1.003409e+05 1.012688e+05 1.012535e+05 1.012417e+05 1.012437e+05 1.012754e+05 1.012145e+05 1.012424e+05 1.012344e+05 1.006788e+05 1.012870e+05 1.013188e+05 1.012470e+05 1.012470e+05 1.012733e+05 1.012733e+05 1.008376e+05 1.008376e+05 1.012886e+05 1.012459e+05 1.012294e+05 1.012915e+05 1.012288e+05 1.011354e+05 1.010674e+05 1.012965e+05 1.012514e+05 1.012760e+05 1.012788e+05 1.012682e+05 1.013153e+05 1.013203e+05 1.013158e+05 9.323987e+04 9.334038e+04 9.353914e+04 9.391457e+04 9.397739e+04 9.430988e+04 9.430988e+04 9.448130e+04 9.473261e+04 9.502924e+04 9.502924e+04 9.527848e+04 9.535516e+04 9.568079e+04 9.568079e+04 9.583662e+04 9.599414e+04 9.619577e+04 9.645029e+04 9.652018e+04 9.659207e+04 9.688815e+04 9.701709e+04 9.701709e+04 9.726107e+04 9.736745e+04 9.741401e+04 9.753569e+04 9.778668e+04 9.784724e+04 9.795734e+04 9.806724e+04 9.816128e+04 9.824435e+04 9.834527e+04 9.845040e+04 9.860823e+04 9.873897e+04 9.882306e+04 9.890844e+04 9.899162e+04 9.902592e+04 9.915270e+04 9.927476e+04 9.934009e+04 9.936755e+04 9.948620e+04 9.955817e+04 9.959343e+04 9.966431e+04 9.973202e+04 9.981453e+04 9.993547e+04 9.993547e+04 1.000549e+05 1.000549e+05 1.001281e+05 1.002236e+05 1.002462e+05 1.002869e+05 1.003778e+05 1.004225e+05 1.004225e+05 1.004652e+05 1.005262e+05 1.005488e+05 1.006176e+05 1.006671e+05 1.006671e+05 1.007285e+05 1.007385e+05 1.007684e+05 1.008078e+05 1.008551e+05 1.008551e+05 1.008857e+05 1.009214e+05 1.009412e+05 1.009611e+05 1.009970e+05 1.010148e+05 1.010148e+05 1.010372e+05 1.010618e+05 1.010836e+05 1.010836e+05 1.010979e+05 1.011233e+05 1.011233e+05 1.011469e+05 1.011595e+05 1.011595e+05 1.011688e+05 1.011773e+05 1.011908e+05 1.011939e+05 1.012087e+05 1.012156e+05 1.012156e+05 1.012254e+05 1.012333e+05 1.012333e+05 1.012388e+05 1.012459e+05 1.012496e+05 1.012585e+05 1.012585e+05 1.012657e+05 1.012718e+05 1.012718e+05 1.012802e+05 1.012819e+05 1.012887e+05 1.012926e+05 1.012926e+05 1.013008e+05 1.013040e+05 1.013055e+05 1.013115e+05 1.013137e+05 1.013188e+05 1.013250e+05 1.013250e+05 1.013250e+05 1.013250e+05 1.013250e+05 1.013127e+05 1.012887e+05 1.012782e+05 1.012990e+05 1.017427e+05 1.027447e+05 1.027447e+05 1.027447e+05 1.006396e+05 1.006396e+05 1.006396e+05 1.007094e+05 1.007094e+05 1.013112e+05 1.013112e+05 9.994945e+04 9.994945e+04 9.994945e+04 1.003502e+05 1.003502e+05 1.010517e+05 1.010517e+05 1.010517e+05 1.012981e+05 1.017427e+05 1.017427e+05 1.015956e+05 1.012806e+05 1.012806e+05 1.012806e+05 1.012852e+05 1.012852e+05 1.012767e+05 1.012918e+05 1.012918e+05 1.012848e+05 1.013127e+05 1.012975e+05 1.012952e+05 1.013141e+05 1.013141e+05 1.013179e+05 1.013179e+05 1.013200e+05 1.013219e+05 1.000891e+05 1.000891e+05 1.000891e+05 9.991468e+04 9.991468e+04 9.972915e+04 9.767709e+04 9.767709e+04 9.767709e+04 9.766132e+04 9.770380e+04 1.004665e+05 9.933264e+04 9.933264e+04 9.941389e+04 9.780441e+04 9.780441e+04 9.785065e+04 9.933685e+04 9.933685e+04 9.933685e+04 9.304512e+04 9.304512e+04 9.304512e+04 9.385531e+04 9.385531e+04 9.385531e+04 1.006242e+05 1.006242e+05 1.006242e+05 9.632527e+04 9.632527e+04 9.632527e+04 9.869073e+04 9.869073e+04 9.869073e+04 9.873067e+04 9.587038e+04 9.587038e+04 9.764429e+04 9.764429e+04 9.764429e+04 9.328885e+04 9.352654e+04 9.752339e+04 9.752339e+04 1.001092e+05 1.001092e+05 1.001092e+05 1.002975e+05 1.002975e+05 9.999157e+04 1.002373e+05 1.002373e+05 1.016573e+05 1.016573e+05 1.016573e+05 1.008376e+05 1.008376e+05 9.695612e+04 9.695612e+04 9.695612e+04 9.749515e+04 9.517138e+04 9.636161e+04 9.850492e+04 9.850492e+04 9.801956e+04 9.801956e+04 9.801956e+04 9.574090e+04 9.516623e+04 9.516623e+04 9.673716e+04 9.673716e+04 9.673716e+04 1.004062e+05 1.004062e+05 1.004062e+05 9.758123e+04 9.758123e+04 9.758123e+04 1.017126e+05 1.012426e+05 9.335773e+04 9.335773e+04 9.335773e+04 9.384581e+04 9.932348e+04 9.932348e+04 9.398724e+04 9.825865e+04 9.825865e+04 9.825865e+04 9.357459e+04 9.357459e+04 9.835202e+04 9.835202e+04 9.716083e+04 9.716083e+04 9.716083e+04 9.530663e+04 9.530663e+04 9.530663e+04 9.541360e+04 9.541360e+04 9.541360e+04 9.377282e+04 9.377282e+04 9.850677e+04 9.850677e+04 9.433008e+04 9.433008e+04 9.433008e+04 9.844397e+04 9.897369e+04 9.897369e+04 9.897369e+04 9.397054e+04 9.849376e+04 9.849376e+04 9.687781e+04 9.687781e+04 9.687781e+04 9.945170e+04 9.945170e+04 9.945170e+04 9.549384e+04 9.587986e+04 9.587986e+04 9.587986e+04 9.476131e+04 9.476131e+04 9.476131e+04 9.357320e+04 9.364476e+04 9.652738e+04 9.652738e+04 9.652738e+04 9.676766e+04 9.676766e+04 9.939179e+04 9.939179e+04 9.939179e+04 9.413947e+04 9.413947e+04 9.413947e+04 9.418491e+04 9.423835e+04 9.412104e+04 9.412104e+04 9.890774e+04 9.890774e+04 9.890774e+04 9.474372e+04 9.474372e+04 9.645857e+04 9.645857e+04 9.322859e+04 9.453366e+04 9.453366e+04 9.569386e+04 9.569386e+04 9.569386e+04 9.792782e+04 9.452766e+04 9.532355e+04 9.532355e+04 9.836618e+04 9.836618e+04 9.799681e+04 9.799681e+04 9.799681e+04 9.689091e+04 9.689091e+04 1.001791e+05 1.001791e+05 1.001791e+05 9.956565e+04 9.956565e+04 9.956565e+04 9.754218e+04 9.399314e+04 9.918858e+04 9.918858e+04 9.918858e+04 9.651989e+04 9.651989e+04 9.651989e+04 9.591885e+04 9.588717e+04 9.399314e+04 9.689969e+04 9.974733e+04 9.974733e+04 9.974733e+04 9.727670e+04 9.727670e+04 9.998547e+04 9.998547e+04 9.998547e+04 9.749518e+04 9.749518e+04 9.749518e+04 9.718334e+04 1.002969e+05 1.002969e+05 1.002969e+05 9.750382e+04 9.641978e+04 9.641978e+04 9.700761e+04 9.891337e+04 9.891337e+04 9.717456e+04 9.785380e+04 9.785380e+04 9.802443e+04 9.802443e+04 9.773625e+04 9.684386e+04 9.950188e+04 9.950188e+04 9.950188e+04 9.812325e+04 1.002799e+05 1.002799e+05 9.528903e+04 9.821868e+04 9.821868e+04 9.822780e+04 1.008048e+05 1.008048e+05 1.008048e+05 1.001067e+05 1.001067e+05 9.846148e+04 9.846148e+04 9.866415e+04 9.866415e+04 9.732327e+04 9.992379e+04 9.992379e+04 9.992379e+04 9.925301e+04 9.925301e+04 9.925301e+04 9.636161e+04 9.995405e+04 9.995405e+04 9.923166e+04 9.918076e+04 9.571484e+04 9.714716e+04 9.774106e+04 9.774106e+04 1.004147e+05 1.004147e+05 1.004147e+05 9.871010e+04 1.009749e+05 1.009749e+05 1.009749e+05 9.913127e+04 9.913127e+04 9.880199e+04 9.763813e+04 1.007947e+05 1.007947e+05 1.007947e+05 1.005044e+05 1.005044e+05 1.005044e+05 1.006566e+05 1.006566e+05 1.003268e+05 1.003268e+05 1.002104e+05 1.002104e+05 1.001052e+05 9.816976e+04 9.816976e+04 9.880050e+04 9.880050e+04 9.954796e+04 9.954796e+04 9.808923e+04 1.009582e+05 1.010169e+05 1.010169e+05 1.010169e+05 9.943130e+04 1.005246e+05 1.005246e+05 9.971365e+04 9.971365e+04 1.001679e+05 9.834783e+04 9.947351e+04 1.000994e+05 1.000994e+05 1.002512e+05 1.002512e+05 9.919335e+04 1.010617e+05 1.010617e+05 1.010617e+05 1.011454e+05 1.011454e+05 1.011454e+05 9.974867e+04 9.974867e+04 9.974867e+04 9.949434e+04 9.949434e+04 1.012867e+05 1.012867e+05 1.012867e+05 1.010437e+05 1.010437e+05 1.010437e+05 1.005039e+05 1.011009e+05 1.011009e+05 1.011009e+05 1.006094e+05 1.006094e+05 9.981163e+04 1.010553e+05 1.010553e+05 1.012242e+05 1.012242e+05 1.012242e+05 9.994249e+04 9.994249e+04 1.004036e+05 1.004036e+05 1.007953e+05 1.007953e+05 1.007953e+05 1.012064e+05 1.012064e+05 1.012064e+05 1.007598e+05 1.012116e+05 1.012116e+05 1.012116e+05 1.012933e+05 1.012933e+05 1.012933e+05 1.009185e+05 1.009185e+05 1.009185e+05 1.008082e+05 1.009433e+05 1.009433e+05 1.008360e+05 1.003962e+05 1.003962e+05 1.012917e+05 1.009570e+05 1.009570e+05 1.009570e+05 1.012258e+05 1.012258e+05 1.012258e+05 1.009512e+05 1.009512e+05 1.009512e+05 1.011198e+05 1.011198e+05 