<?xml version="1.0"?>
 <VTKFile type="UnstructuredGrid" version="1.0" byte_order="LittleEndian" header_type="UInt64">
  <UnstructuredGrid>
    <FieldData>
     <DataArray type="Float64" Name="TimeValue" NumberOfTuples="1" format="ascii">
5e-08
     </DataArray>
    </FieldData>
   <Piece NumberOfPoints="3662" NumberOfCells="3444">
    <PointData>
     <DataArray type="Float64" Name="pointP" format="ascii">
1.638402e+43 -1.989801e+45 -2.296372e+45 -1.196821e+45 -1.796383e+45 -3.051250e+44 -2.364250e+44 4.267781e+43 -7.998687e+43 -1.343067e+44 -1.438949e+44 -3.680139e+44 5.544918e+42 -2.012720e+44 -7.736993e+44 -2.454437e+45 -2.940948e+44 -6.802194e+43 -1.947278e+44 -2.772294e+43 -3.580626e+43 -3.092226e+44 -5.269636e+44 7.144919e+43 1.374586e+45 -1.586179e+44 7.642931e+44 -2.911556e+44 -6.230027e+41 8.275879e+43 -1.034914e+44 -5.636216e+44 -2.028137e+44 -5.928719e+44 3.308455e+42 -9.921939e+42 -3.249656e+44 -1.749268e+42 -7.673007e+41 6.585798e+41 -1.990616e+43 -1.950763e+43 1.036854e+43 -8.901478e+42 -1.138376e+44 -3.451746e+43 -5.516330e+41 2.040542e+43 4.120358e+42 -1.443491e+43 -5.202209e+43 -6.756735e+43 -1.660736e+43 -2.636650e+43 -3.326096e+43 -5.288847e+41 1.453864e+43 -1.327855e+43 -1.693765e+43 -2.353570e+43 -1.935357e+44 -2.410144e+43 5.826510e+39 1.078758e+40 8.859746e+40 -3.085181e+40 3.901896e+40 8.374915e+41 -1.912135e+41 5.263298e+40 -2.487540e+41 -5.135025e+41 -4.635535e+41 -8.528791e+41 -1.691240e+42 -2.286059e+41 -1.596428e+41 -2.544212e+40 3.057341e+39 -1.351413e+40 -3.220723e+40 -4.449412e+39 1.077840e+39 -2.045591e+39 -1.118302e+39 -5.173038e+38 -1.438453e+38 -7.941240e+37 -4.127162e+38 -1.032972e+38 -7.584696e+37 2.489395e+37 2.891172e+36 1.781777e+35 -1.903670e+36 -5.461948e+36 7.387249e+34 1.432798e+32 2.912166e+31 -1.360383e+35 3.232294e+36 5.420771e+35 -2.708036e+34 -1.285787e+35 1.474364e+35 -4.904061e+36 -1.041287e+37 2.230780e+38 3.710517e+38 -6.363902e+37 -1.043816e+37 -1.203089e+38 -1.891255e+38 -1.499413e+39 -6.989646e+38 8.981564e+35 3.438462e+37 -1.104820e+40 -2.020229e+40 -1.496531e+40 -1.175342e+40 -4.433868e+38 -4.870083e+41 -4.870083e+41 -1.313118e+13 8.350993e+15 1.600512e+12 8.855664e+10 1.375864e+10 -2.294732e+11 -3.143823e+10 -3.143823e+10 8.407352e+09 -2.191774e+11 -4.176770e+12 -4.176770e+12 1.920093e+13 1.920093e+13 -1.502470e+16 -3.313467e+14 1.200214e+16 -1.745877e+17 -3.766615e+17 2.611094e+19 2.611094e+19 2.038751e+21 2.038751e+21 -1.894733e+21 1.767886e+23 1.434480e+24 -3.553424e+25 -4.903342e+25 1.652060e+27 -3.957142e+26 -1.706112e+33 -1.813046e+39 8.531273e+37 1.520644e+35 -1.182162e+31 4.655400e+30 1.101739e+32 1.101739e+32 -1.784060e+32 -2.191807e+33 -2.191807e+33 -1.332428e+35 -2.874870e+35 -2.874870e+35 -1.537361e+37 1.209328e+35 1.209328e+35 1.101201e+36 -3.779583e+36 5.662839e+39 5.662839e+39 -1.092434e+42 -2.135779e+40 -1.325353e+40 1.908961e+42 7.350763e+42 9.071419e+13 -2.078236e+19 -2.078236e+19 -2.078236e+19 -3.207046e+20 1.771607e+23 1.771607e+23 1.771607e+23 -2.555561e+21 -2.555561e+21 -2.766809e+22 -2.766809e+22 -2.766809e+22 -1.165216e+23 -1.185311e+22 -7.847774e+17 5.932413e+21 5.932413e+21 9.661745e+20 -3.637936e+17 -3.637936e+17 -3.637936e+17 1.593661e+18 3.949266e+17 2.810055e+38 2.810055e+38 2.810055e+38 6.109558e+37 1.032727e+13 1.032727e+13 1.032727e+13 6.007109e+12 7.126282e+14 7.126282e+14 -3.207140e+18 -3.207140e+18 -5.597259e+21 3.268694e+18 9.071419e+13 9.071419e+13 -2.557802e+14 -2.557802e+14 -2.557802e+14 -1.793395e+14 -4.878881e+14 -4.878881e+14 -2.947295e+14 9.082774e+23 9.082774e+23 9.082774e+23 2.767445e+24 -3.685371e+24 1.519252e+25 2.577886e+24 1.345104e+21 1.345104e+21 1.345104e+21 9.003066e+20 -2.933845e+25 3.933568e+21 -4.398915e+25 3.933568e+21 -1.168017e+33 -1.168017e+33 -1.168017e+33 -6.561190e+32 -6.561190e+32 -6.561190e+32 -1.372017e+32 -7.782417e+31 -2.016897e+32 -7.782417e+31 -7.782417e+31 -5.803654e+33 -5.803654e+33 -5.803654e+33 -1.352540e+34 -7.642290e+36 -7.642290e+36 -7.642290e+36 -1.200905e+37 -3.624134e+39 -3.624134e+39 -3.624134e+39 3.523144e+37 3.523144e+37 -2.867691e+34 -2.867691e+34 -2.867691e+34 -8.070972e+32 2.393691e+31 2.393691e+31 2.393691e+31 -7.938542e+32 -7.938542e+32 -2.468436e+39 -2.468436e+39 -2.468436e+39 8.223843e+39 -2.487421e+34 -2.487421e+34 -2.487421e+34 1.187985e+34 1.187985e+34 4.983836e+39 -2.988407e+36 -2.970392e+39 -2.970392e+39 -2.970392e+39 -5.736930e+39 -1.628624e+42 -1.628624e+42 -1.628624e+42 1.196282e+43 1.196282e+43 -2.647611e+39 -2.647611e+39 -2.647611e+39 -7.556516e+38 4.840738e+41 4.840738e+41 4.840738e+41 1.674490e+41 -1.499413e+39 5.114557e+39 5.114557e+39 5.114557e+39 1.158588e+39 1.158588e+39 1.158588e+39 -3.255852e+40 4.374449e+36 4.374449e+36 4.374449e+36 1.831354e+38 1.432798e+32 1.717725e+33 1.717725e+33 1.717725e+33 1.941746e+33 1.046489e+36 1.046489e+36 1.046489e+36 -6.074671e+34 -6.074671e+34 -2.988407e+36 -2.988407e+36 4.983836e+39 -5.028344e+38 -5.028344e+38 -5.028344e+38 1.315101e+39 1.315101e+39 9.405098e+33 1.754087e+32 1.754087e+32 -6.996750e+34 -6.996750e+34 -6.996750e+34 -9.590856e+35 -9.590856e+35 3.712415e+34 3.712415e+34 3.712415e+34 1.042613e+34 4.863421e+27 -6.672276e+30 4.863421e+27 4.863421e+27 -5.063869e+27 -3.088972e+22 -3.088972e+22 -3.088972e+22 6.084464e+23 1.063445e+24 -1.295339e+23 -1.295339e+23 1.509870e+24 1.509870e+24 -8.387271e+24 -8.387271e+24 -6.427283e+28 -6.427283e+28 -6.427283e+28 -2.916749e+30 -2.916749e+30 1.171495e+19 1.171495e+19 1.171495e+19 -2.808114e+18 3.406014e+19 2.604145e+19 -1.200727e+20 3.172106e+30 3.172106e+30 3.172106e+30 4.325673e+30 -8.169373e+31 -8.169373e+31 -8.169373e+31 5.357257e+31 -3.899558e+28 -3.899558e+28 -3.899558e+28 -2.605424e+31 -2.605424e+31 -2.605424e+31 1.268836e+23 1.268836e+23 1.268836e+23 -3.445827e+34 -3.445827e+34 -3.445827e+34 -8.124113e+32 -8.124113e+32 -8.124113e+32 -1.809811e+32 -2.315511e+32 -4.925180e+30 -4.925180e+30 -4.925180e+30 -7.790433e+31 -7.790433e+31 -2.004767e+31 2.792422e+33 2.792422e+33 2.792422e+33 2.546599e+33 -3.035623e+31 -3.035623e+31 -3.035623e+31 1.708637e+32 -5.833358e+33 -5.833358e+33 -1.538533e+38 -1.538533e+38 -1.538533e+38 1.938080e+37 -2.511106e+33 -2.511106e+33 -2.511106e+33 1.930902e+33 -1.995325e+32 -1.995325e+32 -1.995325e+32 -7.476525e+31 2.138984e+38 2.138984e+38 2.138984e+38 4.404016e+36 4.404016e+36 4.404016e+36 3.907723e+36 9.816383e+34 9.816383e+34 9.816383e+34 2.292593e+35 -1.211380e+35 -1.211380e+35 -1.211380e+35 1.707751e+34 1.973090e+36 1.973090e+36 1.973090e+36 3.485558e+35 -4.006677e+40 -4.006677e+40 -4.006677e+40 -3.289984e+43 -3.289984e+43 -3.289984e+43 6.434057e+42 9.003355e+41 9.003355e+41 9.003355e+41 2.544186e+42 -1.147787e+42 -1.147787e+42 2.997392e+41 5.661428e+40 5.661428e+40 2.215661e+39 -1.246240e+36 -1.246240e+36 -1.429485e+35 -3.292423e+36 -3.292423e+36 -3.292423e+36 -3.017474e+36 -4.238192e+38 -4.238192e+38 -4.238192e+38 -1.567189e+43 -1.567189e+43 -5.225498e+42 1.363731e+40 1.363731e+40 7.176639e+38 -3.724702e+35 -7.360848e+41 -2.514690e+40 1.466103e+34 1.466103e+34 -2.372431e+34 -1.245228e+42 -1.245228e+42 -1.245228e+42 -5.541942e+43 -5.785341e+39 -5.785341e+39 -9.259147e+41 -9.259147e+41 -9.259147e+41 5.503249e+41 5.503249e+41 5.503249e+41 2.523174e+40 2.523174e+40 1.821907e+40 1.821907e+40 1.821907e+40 -3.863868e+40 7.780934e+40 7.780934e+40 7.780934e+40 1.946248e+41 1.946248e+41 -1.796949e+33 -1.796949e+33 -1.796949e+33 -5.785660e+31 -5.785660e+31 1.196599e+40 1.196599e+40 -4.410509e+41 -4.410509e+41 -2.862165e+39 -2.862165e+39 -2.862165e+39 -3.944201e+37 -3.944201e+37 -3.944201e+37 1.931610e+39 -4.759972e+31 -4.759972e+31 -4.759972e+31 4.607671e+33 4.607671e+33 1.697277e+35 1.697277e+35 1.697277e+35 -7.173450e+33 -7.173450e+33 1.316761e+36 1.316761e+36 1.316761e+36 -2.521330e+35 -2.521330e+35 -1.471520e+35 -1.471520e+35 -1.471520e+35 -2.657281e+35 -2.657281e+35 -9.157997e+34 -9.157997e+34 -9.157997e+34 -3.386663e+35 -5.987748e+32 -5.987748e+32 -2.937343e+35 -2.937343e+35 -2.937343e+35 1.426044e+35 1.426044e+35 -1.395353e+29 -1.395353e+29 -1.395353e+29 -7.363278e+29 -7.363278e+29 -8.185045e+26 -8.185045e+26 -8.185045e+26 -1.721165e+30 -1.721165e+30 -1.936589e+26 -1.936589e+26 1.647770e+24 1.647770e+24 -1.650431e+28 -1.650431e+28 -1.489986e+29 -1.489986e+29 -1.018184e+26 -6.184989e+24 -6.184989e+24 1.222085e+29 1.222085e+29 1.222085e+29 1.103306e+31 1.103306e+31 -8.408668e+27 -8.408668e+27 -7.786383e+22 -7.786383e+22 -7.786383e+22 7.411155e+20 1.582561e+22 9.543643e+16 -2.716262e+19 -1.296622e+22 -1.296622e+22 -1.296622e+22 -4.501728e+20 -4.501728e+20 -2.727820e+28 -2.727820e+28 -3.423424e+28 1.827419e+25 -1.836723e+28 -1.162861e+34 -1.162861e+34 -1.162861e+34 -5.165187e+33 2.497175e+36 2.497175e+36 -1.672323e+36 -2.707640e+36 -2.707640e+36 -2.707640e+36 -1.036996e+39 -1.036996e+39 -1.036996e+39 -4.841125e+39 -2.561804e+40 -7.550016e+42 -7.550016e+42 -7.550016e+42 -2.692914e+38 -1.408032e+36 2.068236e+37 2.068236e+37 -1.450503e+41 -1.450503e+41 3.901896e+40 7.772636e+40 7.772636e+40 7.772636e+40 -4.277060e+40 -4.277060e+40 -4.277060e+40 3.762330e+41 -2.296372e+45 5.063205e+42 5.063205e+42 7.327466e+42 7.327466e+42 7.327466e+42 -6.946574e+42 6.746809e+35 6.746809e+35 -8.090515e+34 -5.461948e+36 -4.964631e+43 -4.964631e+43 2.951559e+44 2.951559e+44 9.059422e+36 9.059422e+36 -1.323967e+35 -1.323967e+35 -1.323967e+35 1.127499e+44 1.127499e+44 -1.915328e+44 -2.265515e+42 -2.265515e+42 -1.486818e+41 8.016329e+41 -3.314227e+44 -2.731393e+43 -2.731393e+43 -1.746608e+42 -2.356894e+44 -2.356894e+44 -2.356894e+44 -2.991623e+41 -6.756735e+43 -2.692007e+43 -1.196821e+45 1.281736e+43 -4.743383e+41 -4.743383e+41 1.369039e+41 1.369039e+41 1.369039e+41 1.901224e+40 1.900434e+35 1.900434e+35 6.032801e+32 6.032801e+32 2.906540e+39 3.507547e+43 3.507547e+43 -6.090363e+43 -6.513708e+39 -6.513708e+39 -6.513708e+39 -1.203089e+38 4.267781e+43 -1.797279e+43 1.015193e+45 1.015193e+45 1.015193e+45 1.766051e+44 -1.553805e+37 -1.553805e+37 6.632359e+35 -4.840897e+40 -4.840897e+40 -1.591066e+42 -7.443718e+33 -7.443718e+33 -1.722363e+36 -1.722363e+36 -9.291096e+41 -7.673007e+41 -9.434980e+41 -8.445631e+40 -5.119103e+42 -5.119103e+42 -8.704081e+41 2.474592e+38 -2.135514e+38 -2.135514e+38 9.701674e+34 9.701674e+34 2.127122e+32 2.127122e+32 2.132231e+43 2.132231e+43 -3.506026e+39 -4.461395e+42 6.332729e+40 6.332729e+40 1.653908e+42 4.800422e+43 4.800422e+43 4.800422e+43 -7.413922e+43 -7.413922e+43 2.027657e+36 -8.805406e+36 -8.805406e+36 -1.933204e+40 1.751707e+42 -2.317166e+43 -1.924838e+40 -4.433868e+38 -1.175342e+40 -3.123499e+42 -3.084524e+40 1.912693e+38 1.912693e+38 1.912693e+38 3.633341e+37 1.493861e+45 -2.019907e+41 6.964917e+36 6.964917e+36 2.040542e+43 -6.301329e+40 -1.909553e+33 -1.909553e+33 4.942066e+42 4.942066e+42 -1.443345e+38 -1.443345e+38 -6.897343e+34 3.759611e+37 3.759611e+37 4.161211e+33 2.517680e+32 -4.353385e+37 1.492699e+38 -5.414718e+39 -5.414718e+39 -1.006071e+40 -1.006071e+40 2.810857e+35 3.136606e+36 -7.390255e+43 -1.593826e+39 -1.076748e+37 2.701311e+41 2.160129e+41 -4.867147e+38 -3.042487e+30 -1.066922e+30 1.480192e+31 2.581651e+42 6.195037e+41 6.018715e+42 6.018715e+42 -6.131721e+39 -4.004511e+39 -3.207320e+42 -3.280498e+35 6.604464e+40 6.604464e+40 4.031886e+40 4.031886e+40 4.031886e+40 7.785046e+34 -1.712167e+41 -1.749208e+37 -2.866328e+41 -1.104354e+42 -2.878863e+40 -2.878863e+40 -2.878863e+40 6.145403e+39 6.145403e+39 6.145403e+39 -2.163681e+40 3.790030e+42 -6.521712e+44 -1.119903e+44 -1.598570e+35 -1.598570e+35 -1.598570e+35 -8.016638e+39 -8.016638e+39 -8.016638e+39 8.493704e+41 4.941329e+39 4.941329e+39 -9.735066e+40 1.850503e+39 4.335594e+38 2.334415e+35 6.912878e+34 -3.681398e+35 -3.681398e+35 3.187946e+35 -1.981717e+36 -1.981717e+36 -1.489445e+36 -1.489445e+36 1.017797e+32 7.633613e+42 -3.820366e+34 1.143189e+42 2.973643e+41 1.187716e+43 1.187716e+43 5.353465e+40 5.353465e+40 3.117558e+42 2.865246e+41 -1.460771e+39 -3.317419e+40 -3.317419e+40 -1.283221e+39 -1.283221e+39 5.800917e+39 -1.601304e+38 -1.601304e+38 -1.601304e+38 7.665681e+40 -4.198479e+38 7.849073e+37 7.849073e+37 7.849073e+37 4.463496e+36 4.463496e+36 1.856302e+45 4.240000e+44 -3.716611e+40 -3.716611e+40 -2.460865e+42 -5.204412e+36 -4.555416e+35 -3.000802e+38 -3.000802e+38 -6.972841e+36 -1.667602e+40 -3.593580e+40 5.168363e+34 5.168363e+34 5.168363e+34 -5.785147e+35 -1.696808e+43 -1.696808e+43 -1.865210e+42 1.547212e+42 -9.691731e+40 -9.691731e+40 -1.260891e+30 -1.260891e+30 -1.260891e+30 1.714343e+35 -2.319043e+37 3.777578e+35 -6.603942e+30 -6.603942e+30 -4.715790e+40 2.110062e+37 2.110062e+37 -7.488577e+37 2.207417e+38 -1.135225e+38 -1.135225e+38 -2.081701e+39 -2.081701e+39 2.493589e+40 -5.163940e+40 -5.163940e+40 -9.598222e+33 3.310484e+34 3.310484e+34 5.130954e+38 8.463720e+37 -1.723336e+44 -2.673770e+40 1.159178e+34 1.159178e+34 1.159178e+34 2.949231e+31 1.429497e+38 4.283082e+39 8.191637e+34 8.191637e+34 -2.670094e+37 -2.670094e+37 -2.670094e+37 -1.360743e+38 -1.360743e+38 -1.360743e+38 4.363714e+36 -8.695934e+29 -1.015583e+38 -1.015583e+38 -1.015583e+38 -8.757250e+34 -3.734227e+41 1.284910e+31 4.689562e+31 -1.109804e+41 1.150809e+41 1.150809e+41 2.283782e+40 -4.287401e+38 -1.014677e+38 -1.541089e+40 -1.541089e+40 -2.138804e+38 -7.208602e+38 -7.208602e+38 4.553808e+40 3.097237e+41 -6.706479e+39 8.088166e+37 8.088166e+37 -1.415014e+40 4.522386e+35 4.522386e+35 2.912541e+36 2.912541e+36 -7.673323e+38 -7.673323e+38 -4.643514e+38 -4.643514e+38 1.493164e+35 -3.507645e+40 -2.962925e+38 2.625231e+37 2.625231e+37 -2.202862e+39 9.788332e+34 2.002502e+40 -3.046465e+41 3.068204e+38 3.068204e+38 -5.039543e+33 2.511318e+34 -3.858030e+39 2.265052e+37 -2.712478e+37 -2.712478e+37 -2.079825e+35 -1.582868e+37 -1.582868e+37 8.893170e+38 -2.976498e+34 -2.976498e+34 -2.976498e+34 1.519255e+35 2.312017e+36 5.370000e+31 5.370000e+31 -6.267413e+32 1.059992e+38 1.059992e+38 -1.052490e+37 -2.997346e+39 -2.997346e+39 -2.997346e+39 -8.620680e+39 7.417806e+40 3.688494e+36 1.333254e+36 6.083952e+39 -6.003699e+36 -8.204723e+35 -8.204723e+35 -5.584430e+31 -2.090552e+31 -2.090552e+31 -6.744413e+33 -1.219494e+34 9.718257e+30 -1.427484e+30 -1.427484e+30 -4.595080e+38 -4.595080e+38 -4.595080e+38 8.668561e+37 -3.545670e+37 -3.545670e+37 1.348136e+36 -5.126230e+38 -2.313137e+38 -2.351811e+36 -2.351811e+36 -2.567348e+36 -2.567348e+36 -5.935797e+31 -3.481637e+38 -3.481637e+38 -5.740778e+33 -2.022647e+38 -2.288429e+38 -2.288429e+38 -3.235543e+35 -3.235543e+35 -8.828589e+37 -8.828589e+37 -2.206764e+37 1.611217e+36 -3.537419e+31 1.738118e+36 8.019116e+37 8.019116e+37 -4.721116e+38 -6.515855e+35 -6.515855e+35 -1.747335e+35 -1.747335e+35 -1.616518e+36 7.183808e+35 -3.851059e+32 -1.721156e+32 3.365357e+36 1.327327e+36 -2.307678e+31 -1.071146e+35 -1.071146e+35 -1.071146e+35 1.292620e+38 1.292620e+38 -1.601027e+38 -2.550073e+31 -2.550073e+31 -2.550073e+31 -1.864115e+32 -1.864115e+32 -5.967767e+36 -5.967767e+36 1.813177e+37 -2.955866e+37 -2.902966e+38 -7.476368e+33 2.569589e+37 2.569589e+37 1.775811e+37 -1.085170e+35 -3.668927e+37 -3.668927e+37 -1.113852e+35 7.808540e+30 7.808540e+30 7.808540e+30 -2.151184e+31 -2.170491e+36 4.222567e+34 -9.716263e+33 -1.571033e+34 1.199471e+33 -4.547376e+35 -1.077343e+37 1.800739e+35 -4.132051e+38 -3.825485e+36 -3.825485e+36 -3.825485e+36 4.588699e+36 3.086063e+35 -4.014064e+38 -3.354047e+35 -1.426849e+37 -3.867724e+35 -3.867724e+35 -3.867724e+35 -1.002159e+33 -1.002159e+33 -1.002159e+33 -8.208773e+33 -8.208773e+33 1.601038e+36 -1.121159e+37 -1.121159e+37 -1.121159e+37 4.218110e+33 -3.423288e+35 -3.423288e+35 -3.423288e+35 -3.087771e+35 -2.765885e+33 -2.765885e+33 -2.765885e+33 4.235707e+30 4.235707e+30 4.235707e+30 -7.438079e+33 5.139653e+31 -3.617579e+36 -3.617579e+36 -2.197586e+35 -7.709341e+37 -4.009352e+35 -2.541041e+36 -2.541041e+36 -2.541041e+36 -3.808766e+34 -1.230641e+36 1.084852e+36 -7.432053e+31 1.870836e+32 1.733648e+33 -6.096102e+31 -3.847433e+35 -3.847433e+35 2.343012e+36 6.680722e+38 -2.260748e+35 4.458020e+33 -3.786659e+36 3.869340e+35 3.869340e+35 -9.237096e+31 -1.410653e+33 -1.855430e+33 -1.855430e+33 2.144009e+34 8.274790e+37 -1.060852e+30 -1.060852e+30 5.787520e+34 5.787520e+34 7.422541e+33 2.985604e+35 -8.299269e+35 -3.745631e+35 8.200195e+33 2.553160e+33 -1.321595e+35 9.224191e+37 2.960156e+36 2.261946e+32 -1.039585e+32 -1.039585e+32 -1.039585e+32 5.359843e+35 5.359843e+35 -2.246054e+32 -2.246054e+32 -1.249925e+32 -3.090081e+35 -3.340180e+34 -2.973762e+34 -2.973762e+34 -1.652864e+29 -1.652864e+29 -9.672920e+29 -4.440960e+30 -4.440960e+30 7.541728e+32 2.824420e+31 5.703503e+31 5.453314e+33 -4.925261e+30 3.093745e+33 1.569542e+33 8.518928e+34 -5.916496e+32 -5.916496e+32 -5.916496e+32 1.055207e+34 -1.384703e+35 -3.725966e+35 1.819632e+34 4.016098e+35 5.274001e+31 5.274001e+31 -2.555009e+32 -4.794622e+31 -4.794622e+31 1.535173e+30 1.535173e+30 1.340414e+32 -1.719551e+33 3.834767e+26 1.033110e+31 3.433453e+34 -1.209419e+28 -1.328260e+31 -1.328260e+31 2.674604e+32 2.674604e+32 2.674604e+32 6.734828e+32 -1.213103e+34 -1.928027e+33 2.382107e+37 1.167273e+30 -1.010439e+31 -1.782580e+33 -1.053964e+31 -1.053964e+31 -5.961438e+30 -5.961438e+30 -1.128619e+26 -1.128619e+26 4.800967e+30 -6.070539e+32 -3.086472e+33 -3.086472e+33 -3.957288e+32 2.035699e+26 1.507281e+30 4.223245e+32 -2.535325e+30 -2.535325e+30 1.900609e+28 1.130420e+31 -7.809221e+31 -2.690174e+32 -2.690174e+32 1.761026e+27 1.761026e+27 1.753169e+23 -4.437541e+25 -4.437541e+25 -3.714961e+28 -4.292477e+31 3.701772e+27 1.093560e+30 -9.170337e+30 -2.015086e+29 5.088820e+25 -5.046794e+25 8.414055e+28 8.414055e+28 -7.198776e+31 4.897260e+26 -5.063869e+27 -5.901155e+26 -5.901155e+26 -5.901155e+26 -1.214844e+24 -6.144152e+27 -6.144152e+27 -1.884246e+34 -1.884246e+34 7.902256e+35 7.902256e+35 -1.428784e+28 9.197172e+24 4.747327e+25 -5.294203e+27 -5.294203e+27 -5.294203e+27 -8.405259e+27 3.213862e+25 3.213862e+25 -6.586191e+28 -6.586191e+28 4.557626e+26 4.557626e+26 1.197022e+26 4.803782e+24 4.803782e+24 4.803782e+24 -2.677778e+26 3.838113e+25 -1.263237e+25 -1.263237e+25 4.656218e+25 -3.171105e+24 3.933568e+21 -5.274526e+23 -3.373359e+23 -3.373359e+23 2.273886e+27 -9.618772e+31 -3.159663e+21 -8.451996e+21 7.455135e+24 -5.611620e+22 -5.611620e+22 -3.025779e+24 5.672737e+25 -4.691092e+32 7.130494e+23 7.130494e+23 -6.819105e+24 -4.671182e+31 -4.671182e+31 5.293281e+28 1.369531e+24 -3.496598e+24 -3.496598e+24 -3.496598e+24 6.359024e+22 1.819301e+27 1.496006e+23 -1.935144e+26 1.500637e+22 1.496006e+23 -2.748261e+24 1.445656e+21 1.445656e+21 -1.711255e+20 -2.659013e+20 4.701549e+20 -5.242300e+22 5.686243e+20 5.686243e+20 5.686243e+20 1.458961e+19 2.912859e+21 2.912859e+21 2.912859e+21 6.589830e+18 6.589830e+18 -1.538982e+17 -2.768716e+17 -3.282926e+18 3.746164e+16 1.344831e+17 2.225784e+18 7.419802e+14 -3.945423e+14 3.262094e+17 3.262094e+17 -1.938049e+17 -1.938049e+17 6.738006e+15 -1.923700e+14 -1.923700e+14 -1.923700e+14 1.038989e+12 1.038989e+12 -3.510870e+15 -3.510870e+15 -3.510870e+15 -5.729262e+29 -2.975395e+30 -2.975395e+30 -2.975395e+30 -7.847774e+17 -7.847774e+17 1.618973e+30 1.618973e+30 1.618973e+30 6.047172e+26 6.047172e+26 6.746813e+14 1.294014e+13 2.157476e+29 2.157476e+29 -3.878413e+31 -5.072976e+15 -2.736598e+31 2.378870e+31 -4.605939e+30 9.543643e+16 1.200000e+17 1.420992e+13 -6.492408e+13 -6.492408e+13 -7.411390e+13 3.859456e+38 -1.748111e+28 -1.748111e+28 -1.748111e+28 -4.437906e+27 2.258831e+35 2.258831e+35 2.258831e+35 9.786254e+34 1.389049e+30 1.389049e+30 -7.434512e+36 -1.457361e+25 -1.457361e+25 -1.457361e+25 -2.993801e+24 -6.272147e+17 -2.711742e+36 -2.711742e+36 -2.711742e+36 2.018724e+39 -1.638673e+34 -1.638673e+34 1.137537e+32 1.137537e+32 1.137537e+32 -4.207130e+31 -4.207130e+31 -4.207130e+31 2.924073e+35 -3.568551e+33 -3.568551e+33 -1.009656e+37 -2.405228e+34 -2.812934e+27 -6.809435e+32 8.935378e+30 -5.976007e+32 -2.397591e+27 2.165160e+22 9.657712e+31 -2.075010e+26 2.848422e+22 2.817513e+22 2.817513e+22 -2.920029e+16 -2.920029e+16 -2.920029e+16 -3.143823e+10 -3.923542e+36 -2.459568e+35 -2.459568e+35 1.903398e+32 -5.467586e+25 2.619887e+24 2.619887e+24 -6.516658e+32 -6.516658e+32 -3.713720e+32 -3.713720e+32 6.267072e+28 8.172881e+35 -5.854251e+25 -1.600555e+22 -1.671610e+16 -1.671610e+16 -7.536997e+19 -3.080098e+16 -4.845730e+37 -4.845730e+37 -2.843487e+23 -4.380268e+17 -4.380268e+17 4.085019e+19 -2.486856e+19 8.723438e+18 4.274590e+14 4.274590e+14 4.274590e+14 -4.352592e+15 -4.352592e+15 -3.704417e+14 -3.921611e+12 -3.921611e+12 -3.921611e+12 -3.922015e+16 -3.922015e+16 5.134477e+17 -1.374701e+14 -1.374701e+14 -3.360506e+14 1.788905e+13 1.788905e+13 -1.052762e+17 -1.545210e+13 9.597660e+15 -1.322795e+11 -1.322795e+11 -1.322795e+11 -2.424064e+13 -1.296922e+13 -2.947558e+13 -5.831718e+12 -1.897228e+32 -4.555640e+13 4.722845e+14 -1.942558e+13 -2.294732e+11 1.468076e+30 -5.461093e+33 -5.461093e+33 -5.909236e+33 -5.909236e+33 1.155429e+36 1.155429e+36 1.155429e+36 -7.052881e+36 3.276827e+37 3.276827e+37 3.276827e+37 -1.044582e+40 1.320889e+11 -2.126665e+13 -2.126665e+13 -2.126665e+13 1.981081e+13 -5.744710e+15 6.471964e+16 -1.621767e+23 6.555559e+15 4.143870e+16 -1.610496e+16 3.188496e+15 5.744306e+16 -9.613555e+16 -1.240750e+15 -5.950987e+12 1.483146e+13 -1.577081e+12 -1.577081e+12 3.090253e+11 3.090253e+11 -1.263874e+15 -2.144260e+13 -1.406084e+10 2.254157e+12 -3.879227e+32 -1.010457e+33 -5.885727e+36 -2.038713e+40 1.638402e+43 -3.482339e+44 -5.609651e+44 -2.523576e+44 -2.453585e+46 -1.427608e+45 -4.964139e+45 -6.550810e+43 -1.675847e+44 -3.739453e+44 5.442378e+42 7.456803e+14 7.456803e+14 -7.114178e+08 -7.114178e+08 1.024669e+09 2.316630e+09 -1.148497e+12 -1.148497e+12 -1.148497e+12 8.901776e+11 -6.131312e+11 -6.131312e+11 3.459934e+11 3.459934e+11 3.459934e+11 1.515628e+18 1.515628e+18 1.515628e+18 3.910749e+17 3.910749e+17 3.750122e+11 3.750122e+11 3.750122e+11 8.489040e+10 7.456803e+14 1.142861e+15 1.142861e+15 -8.394697e+11 -1.596316e+17 -1.596316e+17 -3.024512e+41 -3.024512e+41 -3.024512e+41 1.712959e+45 1.712959e+45 -9.557284e+12 -1.696332e+13 -1.696332e+13 1.564125e+43 1.564125e+43 1.758019e+42 2.451792e+36 2.451792e+36 2.451792e+36 -1.604761e+32 -1.604761e+32 -1.604761e+32 1.823149e+31 1.823149e+31 3.514432e+16 6.534555e+39 6.534555e+39 6.534555e+39 2.181192e+40 3.056166e+43 3.056166e+43 3.056166e+43 1.098463e+43 2.069058e+42 4.152232e+41 4.152232e+41 4.152232e+41 -1.546422e+43 -4.503422e+41 -4.503422e+41 -4.503422e+41 -3.229348e+43 -4.512894e+31 -5.234766e+33 -4.512894e+31 -4.512894e+31 4.697693e+19 4.697693e+19 -3.599786e+12 2.346646e+34 2.346646e+34 -4.159345e+43 -3.739453e+44 1.146812e+43 1.146812e+43 -3.229348e+43 -1.325353e+40 -2.135779e+40 1.238603e+43 2.416310e+40 7.167358e+40 7.167358e+40 2.262928e+40 8.355585e+39 2.906174e+40 2.262928e+40 6.110180e+38 2.500608e+38 2.500608e+38 -1.320267e+39 -1.320267e+39 4.684300e+39 -5.298044e+37 6.957665e+39 -5.106205e+37 -5.106205e+37 1.678140e+37 -6.316788e+37 8.541636e+35 -2.119854e+33 -2.119854e+33 -5.234766e+33 6.918053e+30 6.918053e+30 5.281431e+30 5.281431e+30 5.326532e+30 4.735706e+31 1.169105e+29 -3.334441e+17 -3.599786e+12 -3.599786e+12 -1.150383e+12 -1.150383e+12 -1.150383e+12 4.427899e+12 -3.490992e+10 -2.189987e+15 -2.189987e+15 -2.189987e+15 -1.210159e+16 -1.813492e+16 -1.813492e+16 -1.813492e+16 4.243982e+16 -3.313467e+14 -2.323516e+23 -2.323516e+23 -2.323516e+23 -6.109611e+23 4.527327e+25 4.527327e+25 4.527327e+25 8.177247e+24 1.194815e+24 4.240337e+21 4.240337e+21 9.716701e+21 3.346048e+34 3.346048e+34 3.346048e+34 1.520644e+35 1.520644e+35 -1.637524e+40 -1.637524e+40 -1.637524e+40 -2.968235e+21 -2.968235e+21 1.459655e+34 1.459655e+34 1.459655e+34 -4.672796e+27 -4.672796e+27 7.452678e+31 7.452678e+31 7.452678e+31 9.533699e+30 9.533699e+30 9.533699e+30 5.888897e+26 5.888897e+26 5.888897e+26 -1.530735e+16 -4.285092e+28 -4.902395e+30 -5.485639e+39 -1.706112e+33 5.354148e+32 -6.101894e+30 -6.101894e+30 1.524719e+26 1.524719e+26 1.112232e+34 2.203316e+26 -1.012102e+30 -1.012102e+30 -1.012102e+30 -5.944230e+32 2.346646e+34 -1.986760e+27 -1.253541e+23 -1.253541e+23 -1.253541e+23 -1.145814e+30 2.196051e+27 8.182061e+22 2.186710e+22 -7.299332e+23 4.023801e+25 -8.483780e+23 -8.701334e+23 -3.621618e+19 -3.621618e+19 4.322690e+10 -1.537361e+37 -1.537361e+37 7.317647e+30 1.434480e+24 1.434480e+24 1.592697e+34 -7.956366e+36 2.141583e+21 2.141583e+21 4.818736e+23 4.818736e+23 4.818736e+23 7.521498e+28 -5.411325e+30 1.984350e+24 6.190197e+22 5.291387e+25 -1.929743e+21 -1.027556e+21 -1.027556e+21 -1.027556e+21 -3.422638e+17 -3.422638e+17 9.223233e+17 4.179671e+16 4.179671e+16 -3.782073e+18 -4.021979e+16 3.514432e+16 -3.227376e+13 -3.227376e+13 -2.117025e+14 1.825302e+11 -1.306552e+30 7.483342e+33 7.483342e+33 -7.199927e+35 -7.199927e+35 1.016021e+33 5.999652e+10 -3.553424e+25 2.622767e+29 1.101739e+32 -3.137304e+31 -1.363770e+32 -1.363770e+32 -1.764411e+35 -1.764411e+35 -1.764411e+35 1.674390e+35 1.576021e+35 1.209328e+35 1.101201e+36 1.101201e+36 1.423125e+36 2.214387e+41 2.611094e+19 2.038751e+21 -3.751621e+30 -3.779583e+36 -1.894733e+21 -6.137343e+22 -5.142573e+19 -3.766615e+17 7.430407e+19 5.155636e+17 -1.502470e+16 1.313022e+23 -1.781345e+15 -1.781345e+15 -3.683039e+13 -1.856436e+13 -4.176770e+12 -2.109254e+11 -2.109254e+11 -2.191774e+11 -4.418033e+15 -1.447181e+13 1.866929e+30 -2.311718e+33 -1.115529e+33 2.929601e+37 -8.950411e+34 -1.441427e+35 -7.218150e+33 -5.213515e+37 -7.623729e+35 -7.756042e+09 -7.114178e+08 1.638402e+43 -1.989801e+45 -2.296372e+45 -1.196821e+45 -1.796383e+45 -3.051250e+44 -2.364250e+44 4.267781e+43 -7.998687e+43 -1.343067e+44 -1.438949e+44 -3.680139e+44 5.544918e+42 -2.012720e+44 -7.736993e+44 -2.454437e+45 -2.940948e+44 -6.802194e+43 -1.947278e+44 -2.772294e+43 -3.580626e+43 -3.092226e+44 -5.269636e+44 7.144919e+43 1.374586e+45 -1.586179e+44 7.642931e+44 -2.911556e+44 -6.230027e+41 8.275879e+43 -1.034914e+44 -5.636216e+44 -2.028137e+44 -5.928719e+44 3.308455e+42 -9.921939e+42 -3.249656e+44 -1.749268e+42 -7.673007e+41 6.585798e+41 -1.990616e+43 -1.950763e+43 1.036854e+43 -8.901478e+42 -1.138376e+44 -3.451746e+43 -5.516330e+41 2.040542e+43 4.120358e+42 -1.443491e+43 -5.202209e+43 -6.756735e+43 -1.660736e+43 -2.636650e+43 -3.326096e+43 -5.288847e+41 1.453864e+43 -1.327855e+43 -1.693765e+43 -2.353570e+43 -1.935357e+44 -2.410144e+43 5.826510e+39 1.078758e+40 8.859746e+40 -3.085181e+40 3.901896e+40 8.374915e+41 -1.912135e+41 5.263298e+40 -2.487540e+41 -5.135025e+41 -4.635535e+41 -8.528791e+41 -1.691240e+42 -2.286059e+41 -1.596428e+41 -2.544212e+40 3.057341e+39 -1.351413e+40 -3.220723e+40 -4.449412e+39 1.077840e+39 -2.045591e+39 -1.118302e+39 -5.173038e+38 -1.438453e+38 -7.941240e+37 -4.127162e+38 -1.032972e+38 -7.584696e+37 2.489395e+37 2.891172e+36 1.781777e+35 -1.903670e+36 -5.461948e+36 7.387249e+34 1.432798e+32 2.912166e+31 -1.360383e+35 3.232294e+36 5.420771e+35 -2.708036e+34 -1.285787e+35 1.474364e+35 -4.904061e+36 -1.041287e+37 2.230780e+38 3.710517e+38 -6.363902e+37 -1.043816e+37 -1.203089e+38 -1.891255e+38 -1.499413e+39 -6.989646e+38 8.981564e+35 3.438462e+37 -1.104820e+40 -2.020229e+40 -1.496531e+40 -1.175342e+40 -4.433868e+38 -4.870083e+41 -4.870083e+41 -1.313118e+13 -1.313118e+13 -1.809382e+14 8.855664e+10 1.375864e+10 -2.294732e+11 -3.143823e+10 -3.143823e+10 8.407352e+09 -2.191774e+11 -4.176770e+12 -4.176770e+12 1.920093e+13 1.920093e+13 -1.502470e+16 -3.313467e+14 1.200214e+16 -1.745877e+17 -3.766615e+17 2.611094e+19 2.611094e+19 2.038751e+21 2.038751e+21 -1.894733e+21 1.767886e+23 1.434480e+24 -3.553424e+25 -4.903342e+25 1.652060e+27 -3.957142e+26 -1.706112e+33 -1.813046e+39 8.531273e+37 1.520644e+35 -1.182162e+31 4.655400e+30 1.101739e+32 1.101739e+32 -1.784060e+32 -2.191807e+33 -2.191807e+33 -1.332428e+35 -2.874870e+35 -2.874870e+35 -1.537361e+37 1.209328e+35 1.209328e+35 1.101201e+36 -3.779583e+36 5.662839e+39 5.662839e+39 -1.092434e+42 -2.135779e+40 -1.325353e+40 1.908961e+42 7.350763e+42 9.071419e+13 -2.078236e+19 -2.078236e+19 -2.078236e+19 -3.207046e+20 1.771607e+23 1.771607e+23 1.771607e+23 -2.555561e+21 -2.555561e+21 -2.766809e+22 -2.766809e+22 -2.766809e+22 -1.165216e+23 -1.185311e+22 -7.847774e+17 5.932413e+21 5.932413e+21 9.661745e+20 -3.637936e+17 -3.637936e+17 -3.637936e+17 1.593661e+18 3.949266e+17 2.810055e+38 2.810055e+38 2.810055e+38 6.109558e+37 1.032727e+13 1.032727e+13 1.032727e+13 6.007109e+12 7.126282e+14 7.126282e+14 -3.207140e+18 -3.207140e+18 -5.597259e+21 3.268694e+18 9.071419e+13 9.071419e+13 -2.557802e+14 -2.557802e+14 -2.557802e+14 -1.793395e+14 -4.878881e+14 -4.878881e+14 -2.947295e+14 9.082774e+23 9.082774e+23 9.082774e+23 2.767445e+24 -3.685371e+24 1.519252e+25 2.577886e+24 1.345104e+21 1.345104e+21 1.345104e+21 9.003066e+20 -2.933845e+25 3.933568e+21 -4.398915e+25 3.933568e+21 -1.168017e+33 -1.168017e+33 -1.168017e+33 -6.561190e+32 -6.561190e+32 -6.561190e+32 -1.372017e+32 -7.782417e+31 -2.016897e+32 -7.782417e+31 -7.782417e+31 -5.803654e+33 -5.803654e+33 -5.803654e+33 -1.352540e+34 -7.642290e+36 -7.642290e+36 -7.642290e+36 -1.200905e+37 -3.624134e+39 -3.624134e+39 -3.624134e+39 3.523144e+37 3.523144e+37 -2.867691e+34 -2.867691e+34 -2.867691e+34 -8.070972e+32 2.393691e+31 2.393691e+31 2.393691e+31 -7.938542e+32 -7.938542e+32 -2.468436e+39 -2.468436e+39 -2.468436e+39 8.223843e+39 -2.487421e+34 -2.487421e+34 -2.487421e+34 1.187985e+34 1.187985e+34 4.983836e+39 -2.988407e+36 -2.970392e+39 -2.970392e+39 -2.970392e+39 -5.736930e+39 -1.628624e+42 -1.628624e+42 -1.628624e+42 1.196282e+43 1.196282e+43 -2.647611e+39 -2.647611e+39 -2.647611e+39 -7.556516e+38 4.840738e+41 4.840738e+41 4.840738e+41 1.674490e+41 -1.499413e+39 5.114557e+39 5.114557e+39 5.114557e+39 1.158588e+39 1.158588e+39 1.158588e+39 -3.255852e+40 4.374449e+36 4.374449e+36 4.374449e+36 1.831354e+38 1.432798e+32 1.717725e+33 1.717725e+33 1.717725e+33 1.941746e+33 1.046489e+36 1.046489e+36 1.046489e+36 -6.074671e+34 -6.074671e+34 -2.988407e+36 -2.988407e+36 4.983836e+39 -5.028344e+38 -5.028344e+38 -5.028344e+38 1.315101e+39 1.315101e+39 9.405098e+33 1.754087e+32 1.754087e+32 -6.996750e+34 -6.996750e+34 -6.996750e+34 -9.590856e+35 -9.590856e+35 3.712415e+34 3.712415e+34 3.712415e+34 1.042613e+34 4.863421e+27 -6.67