<?xml version="1.0"?>
 <VTKFile type="UnstructuredGrid" version="1.0" byte_order="LittleEndian" header_type="UInt64">
  <UnstructuredGrid>
    <FieldData>
     <DataArray type="Float64" Name="TimeValue" NumberOfTuples="1" format="ascii">
5e-08
     </DataArray>
    </FieldData>
   <Piece NumberOfPoints="3468" NumberOfCells="3392">
    <PointData>
     <DataArray type="Float64" Name="pointP" format="ascii">
-2.562218e+21 -7.670378e+21 1.934887e+21 -3.263018e+24 -1.773739e+23 4.820632e+23 4.820632e+23 -4.188563e+22 3.682537e+23 -1.533814e+24 -1.533814e+24 5.976461e+22 -2.616947e+22 -1.606852e+21 -1.606852e+21 -8.828449e+19 -3.059627e+20 -9.472211e+21 1.494872e+22 -1.432664e+21 -4.896398e+21 -3.293572e+21 -3.969090e+21 -3.969090e+21 2.073970e+20 -3.647454e+19 1.230300e+18 -9.686978e+16 -1.481260e+19 -2.402913e+18 -1.460568e+18 -1.410372e+18 6.099804e+15 -3.550087e+18 -2.918313e+17 1.209817e+18 -1.217987e+15 -6.479374e+15 3.059806e+15 -5.330178e+14 2.764840e+20 1.943771e+20 3.707111e+23 8.225583e+24 2.418502e+27 1.980683e+28 -9.963906e+31 1.826849e+32 2.534985e+31 -1.627238e+25 -1.060183e+25 -9.846720e+21 1.113864e+20 1.113864e+20 1.796438e+18 1.796438e+18 -3.181089e+22 -1.641114e+18 4.069619e+19 -4.145958e+18 -1.182149e+12 1.536687e+10 1.536687e+10 -5.981723e+09 -1.404571e+09 5.718889e+09 3.387942e+12 4.357129e+14 4.357129e+14 -8.229036e+12 -1.365963e+12 5.195411e+09 1.161163e+08 -3.235948e+07 -3.235948e+07 2.936062e+07 -7.958349e+06 4.377512e+07 8.215123e+07 2.362259e+07 2.338650e+06 2.338650e+06 7.845214e+05 6.267916e+05 5.779488e+06 5.779488e+06 9.278831e+06 4.918075e+06 4.918075e+06 9.063060e+06 2.077524e+07 2.077524e+07 1.222983e+07 1.021300e+07 2.755118e+07 3.112457e+07 2.456685e+07 2.061931e+07 2.061931e+07 2.522143e+07 1.252461e+07 1.252461e+07 9.540511e+06 9.442750e+06 1.954010e+07 1.354264e+07 1.354264e+07 1.459769e+07 7.317448e+06 7.317448e+06 7.067115e+06 6.684996e+06 9.379686e+06 4.460923e+06 4.460923e+06 5.437703e+06 7.013593e+06 6.996678e+06 3.731204e+06 1.546246e+06 8.219431e+05 1.013250e+05 1.013250e+05 1.013250e+05 1.013250e+05 1.013250e+05 1.261596e+07 3.587868e+07 3.691129e+07 3.139389e+08 -5.165280e+12 -5.165280e+12 3.805498e+12 3.805498e+12 -2.431722e+07 -2.431722e+07 -2.431722e+07 -1.464949e+08 -1.464949e+08 3.003218e+06 3.003218e+06 -1.618513e+13 -1.618513e+13 -1.618513e+13 -1.002466e+12 -1.002466e+12 -5.902800e+12 -5.902800e+12 -5.902800e+12 2.096025e+12 1.732203e+09 1.732203e+09 4.933971e+09 7.803273e+06 7.803273e+06 7.803273e+06 8.952247e+06 8.952247e+06 1.052675e+07 1.128735e+07 1.128735e+07 1.165508e+07 3.692639e+06 9.201568e+06 1.094966e+07 3.844510e+06 3.844510e+06 2.670382e+06 2.670382e+06 8.776497e+05 -1.629334e+06 1.248116e+17 1.248116e+17 1.248116e+17 -1.647009e+14 -1.647009e+14 -1.926100e+14 -2.014967e+18 -2.014967e+18 -2.014967e+18 -9.492865e+17 1.261222e+16 2.451644e+11 -2.261418e+14 -2.261418e+14 6.415856e+14 -2.453457e+17 -2.453457e+17 -4.716369e+16 3.507951e+13 3.507951e+13 3.507951e+13 5.015773e+21 5.015773e+21 5.015773e+21 7.040417e+23 7.040417e+23 7.040417e+23 -1.354405e+09 -1.354405e+09 -1.354405e+09 -4.234171e+18 -4.234171e+18 -4.234171e+18 -1.310131e+14 -1.310131e+14 -1.310131e+14 -9.893738e+13 -1.024815e+22 -1.024815e+22 2.686550e+17 2.686550e+17 2.686550e+17 5.476786e+22 9.565214e+21 -1.081085e+20 -1.081085e+20 4.189705e+08 4.189705e+08 4.189705e+08 -1.645817e+09 -1.645817e+09 1.587743e+14 2.091969e+13 2.091969e+13 5.463993e+13 5.463993e+13 5.463993e+13 4.172154e+09 4.172154e+09 -2.635287e+20 -2.635287e+20 -2.635287e+20 7.149549e+19 -8.674787e+20 1.450602e+19 -2.452747e+16 -2.452747e+16 -1.618363e+20 -1.618363e+20 -1.618363e+20 7.415618e+20 -5.935943e+21 -5.935943e+21 3.630610e+19 3.630610e+19 3.630610e+19 6.129302e+08 6.129302e+08 6.129302e+08 -5.392118e+19 -5.392118e+19 -5.392118e+19 -8.290990e+17 -1.149724e+17 -4.793989e+24 -4.793989e+24 -4.793989e+24 1.684278e+23 1.846504e+25 1.846504e+25 1.274715e+23 -3.573148e+14 -3.573148e+14 -3.573148e+14 -3.982099e+24 -3.982099e+24 2.488634e+16 2.488634e+16 -1.367457e+19 -1.367457e+19 -1.367457e+19 -2.209707e+23 -2.209707e+23 -2.209707e+23 -4.292570e+21 -4.292570e+21 -4.292570e+21 4.874733e+25 4.874733e+25 -1.928899e+17 -1.928899e+17 5.323867e+20 5.323867e+20 5.323867e+20 4.572699e+16 -1.504245e+18 -1.504245e+18 -1.504245e+18 1.049257e+26 -6.241181e+15 -6.241181e+15 5.004716e+19 5.004716e+19 5.004716e+19 2.137321e+25 2.137321e+25 2.137321e+25 -1.867526e+22 3.742504e+21 3.742504e+21 3.742504e+21 1.792995e+23 1.792995e+23 1.792995e+23 -2.299358e+23 1.776599e+24 8.119884e+18 8.119884e+18 8.119884e+18 5.114705e+18 5.114705e+18 2.363725e+20 2.363725e+20 2.363725e+20 -1.056745e+24 -1.056745e+24 -1.056745e+24 -1.430342e+24 6.188902e+24 -1.293477e+22 -1.293477e+22 4.773177e+13 4.773177e+13 4.773177e+13 5.530566e+23 5.530566e+23 2.570908e+21 2.570908e+21 -5.807365e+21 -2.896442e+22 -2.896442e+22 -2.912676e+21 -2.912676e+21 -2.912676e+21 -3.692954e+19 2.307411e+21 5.751307e+21 5.751307e+21 1.008611e+17 1.008611e+17 7.945970e+18 7.945970e+18 7.945970e+18 -7.192183e+19 -7.192183e+19 -9.937970e+10 -9.937970e+10 -9.937970e+10 -4.056700e+16 -4.056700e+16 -4.056700e+16 8.830136e+16 -6.414730e+21 3.298521e+20 3.298521e+20 3.298521e+20 -1.005109e+23 -1.005109e+23 -1.005109e+23 -3.475456e+20 8.108214e+20 -6.414730e+21 -2.464808e+20 -1.645416e+18 -1.645416e+18 -1.645416e+18 -3.828223e+18 -3.828223e+18 2.562715e+18 2.562715e+18 2.562715e+18 1.933408e+19 1.933408e+19 1.933408e+19 -1.528291e+20 3.899100e+10 3.899100e+10 3.899100e+10 5.976544e+15 -7.598779e+19 -7.598779e+19 1.851272e+19 -1.148367e+13 -1.148367e+13 -1.941816e+17 -3.640933e+19 -3.640933e+19 5.767501e+19 5.767501e+19 -3.737843e+21 -4.726271e+18 -3.378636e+16 -3.378636e+16 -3.378636e+16 8.410014e+18 -4.677693e+11 -4.677693e+11 -6.373452e+20 -2.290485e+19 -2.290485e+19 3.943279e+18 1.691188e+07 1.691188e+07 1.691188e+07 -2.074911e+12 -2.074911e+12 4.914474e+16 4.914474e+16 -6.683353e+14 -6.683353e+14 -3.210654e+18 -3.686393e+12 -3.686393e+12 -3.686393e+12 -1.275078e+16 -1.275078e+16 -1.275078e+16 1.450602e+19 1.459555e+16 1.459555e+16 -7.405834e+12 -2.088635e+12 -2.417681e+21 -7.348181e+17 -7.340859e+15 -7.340859e+15 8.928048e+09 8.928048e+09 8.928048e+09 -2.186917e+14 6.063203e+06 6.063203e+06 6.063203e+06 3.780840e+11 3.780840e+11 -6.638847e+14 2.096046e+19 -3.325707e+07 -3.325707e+07 -3.325707e+07 2.791978e+07 2.791978e+07 2.791978e+07 -1.657853e+08 -1.657853e+08 3.095337e+08 3.095337e+08 -4.791206e+07 -4.791206e+07 3.195086e+12 7.793292e+18 7.793292e+18 7.662246e+15 7.662246e+15 3.024335e+13 3.024335e+13 2.567372e+16 -1.819006e+06 6.790250e+05 6.790250e+05 6.790250e+05 1.394572e+12 6.325302e+07 6.325302e+07 -3.236991e+11 -3.236991e+11 1.992766e+16 -2.160415e+18 -2.638339e+14 1.367708e+10 1.367708e+10 3.109779e+09 3.109779e+09 -1.861622e+15 1.858120e+07 1.858120e+07 1.858120e+07 1.984898e+07 1.984898e+07 1.984898e+07 -5.618378e+11 -5.618378e+11 -5.618378e+11 -4.570932e+13 -4.570932e+13 9.082185e+06 9.082185e+06 9.082185e+06 -8.818673e+06 -8.818673e+06 -8.818673e+06 1.383788e+08 1.548836e+07 1.548836e+07 1.548836e+07 -1.102081e+08 -1.102081e+08 -2.024539e+13 1.007102e+07 1.007102e+07 2.360556e+07 2.360556e+07 2.360556e+07 -4.843240e+10 -4.843240e+10 2.179515e+08 2.179515e+08 1.949048e+09 1.949048e+09 1.949048e+09 1.676129e+07 1.676129e+07 1.676129e+07 3.968952e+11 1.306935e+07 1.306935e+07 1.306935e+07 5.103742e+06 5.103742e+06 5.103742e+06 -1.226919e+07 -1.226919e+07 -1.226919e+07 -6.420096e+06 -3.334882e+08 -3.334882e+08 -2.728066e+08 -2.066041e+08 -2.066041e+08 7.497496e+06 3.390919e+07 3.390919e+07 3.390919e+07 5.139665e+06 5.139665e+06 5.139665e+06 2.042755e+07 2.042755e+07 2.042755e+07 1.024200e+07 1.024200e+07 1.024200e+07 -1.707898e+07 -1.707898e+07 -3.857068e+07 -3.857068e+07 -6.310344e+07 -6.310344e+07 1.506591e+07 1.506591e+07 1.506591e+07 -6.325205e+07 -6.325205e+07 -8.728441e+07 -8.728441e+07 1.626607e+07 1.589654e+07 1.589654e+07 -2.174492e+07 -2.174492e+07 -9.130117e+06 1.919020e+07 1.919020e+07 1.919020e+07 1.707336e+07 1.707336e+07 1.345506e+07 1.345506e+07 -1.852190e+07 8.683654e+10 8.683654e+10 8.683654e+10 -6.032005e+12 -6.032005e+12 -6.032005e+12 1.620786e+07 1.620786e+07 1.940630e+07 1.940630e+07 1.940630e+07 1.820212e+07 1.658106e+07 1.658106e+07 1.521649e+09 -3.007359e+13 -3.748815e+22 4.869011e+16 -2.624058e+21 9.205762e+16 1.010119e+15 7.264076e+06 7.264076e+06 7.264076e+06 1.078038e+07 1.078038e+07 -1.847101e+07 -1.294358e+06 4.782516e+06 3.445166e+16 -1.880246e+17 2.089354e+08 1.350510e+08 1.350510e+08 1.796263e+07 1.796263e+07 1.796263e+07 1.625716e+07 1.006772e+07 3.250755e+07 3.250755e+07 1.877185e+07 1.877185e+07 1.877185e+07 7.219325e+05 -9.702565e+10 -1.629151e+10 3.070350e+22 1.183206e+22 1.183206e+22 -2.385324e+22 4.688766e+18 4.688766e+18 5.153379e+14 -2.741382e+06 1.086742e+07 1.086742e+07 1.086742e+07 7.891308e+06 7.891308e+06 -1.035987e+22 -1.035987e+22 2.182154e+22 -9.946739e+23 6.238542e+23 6.304722e+23 3.571529e+23 3.571529e+23 3.571529e+23 -9.969652e+20 1.569334e+23 -4.598188e+23 -8.862342e+14 -7.138427e+19 -2.049823e+23 -2.049823e+23 -2.049823e+23 -4.911676e+20 -4.911676e+20 1.991305e+23 -5.386456e+24 -1.934321e+23 -1.052382e+25 7.252021e+17 -9.339401e+23 -7.603454e+23 -7.603454e+23 7.527892e+22 -1.987006e+20 -1.987006e+20 -1.518865e+21 9.640784e+21 7.476687e+20 -8.692883e+19 -2.965880e+20 1.134174e+18 -6.211969e+21 -6.211969e+21 -6.211969e+21 -2.423320e+22 -2.423320e+22 -1.706775e+20 7.043581e+20 -5.460122e+23 3.006363e+22 -5.250974e+21 -8.226177e+23 -1.434414e+23 4.990391e+20 -1.514364e+20 -9.114866e+21 2.589556e+18 1.184980e+21 -8.483975e+19 -6.978752e+15 2.195204e+18 -6.930276e+15 -5.747184e+20 1.067601e+21 1.285823e+23 1.285823e+23 9.990360e+22 1.580820e+16 1.580820e+16 4.907969e+18 4.907969e+18 -1.604967e+16 1.017915e+17 1.217511e+23 1.217511e+23 1.217511e+23 1.546015e+21 -1.422922e+20 -1.422922e+20 1.680411e+19 1.701453e+13 2.113620e+18 3.109261e+30 -3.168934e+25 -3.168934e+25 -1.299663e+16 -4.703158e+17 5.259363e+16 5.259363e+16 -3.832157e+16 -4.257007e+14 -5.079954e+17 -5.083345e+24 -1.006104e+24 -2.973681e+09 -2.973681e+09 -2.294812e+17 6.152375e+17 2.321970e+17 2.321970e+17 2.321970e+17 3.086061e+20 3.913173e+21 -4.766496e+19 -1.532585e+17 7.785949e+16 7.785949e+16 7.785949e+16 5.336951e+16 5.336951e+16 -8.671224e+21 6.661738e+18 -2.940883e+08 1.197598e+17 -2.775200e+11 -3.161170e+11 -3.161170e+11 -7.219410e+16 9.577492e+13 1.385114e+22 -4.155775e+22 -1.171807e+22 3.401118e+23 -4.477086e+05 -4.477086e+05 -4.477086e+05 -7.481517e+11 8.178883e+14 2.049244e+20 -1.602376e+10 1.475686e+17 -9.024579e+14 -9.024579e+14 1.153656e+12 -2.275931e+15 1.825615e+07 1.825615e+07 -7.075081e+16 1.865443e+07 1.865443e+07 5.006239e+08 1.950316e+11 1.950316e+11 4.672929e+07 4.672929e+07 4.134075e+14 3.176009e+11 6.350007e+07 4.345711e+07 4.345711e+07 5.727884e+22 -1.235779e+13 -1.235779e+13 -1.424264e+12 -1.424264e+12 -1.424264e+12 3.276431e+19 3.276431e+19 -2.693693e+11 2.643662e+07 2.643662e+07 1.523040e+07 1.207386e+07 5.947387e+07 -1.867729e+09 1.087150e+10 -2.348684e+10 1.059060e+08 1.467466e+09 3.008977e+10 2.764575e+07 2.427866e+07 2.427866e+07 2.427866e+07 1.648516e+07 1.016763e+06 1.887103e+07 1.887103e+07 1.887103e+07 -3.727822e+05 -1.507742e+08 -1.507742e+08 -1.507742e+08 2.637958e+07 -8.376609e+10 1.868319e+07 1.868319e+07 4.611923e+06 4.176521e+08 -1.813774e+15 1.052829e+09 8.527407e+09 1.608554e+07 1.608554e+07 -9.946197e+06 -6.935394e+06 1.817249e+07 8.936565e+08 1.742806e+07 1.742806e+07 1.742806e+07 1.506226e+07 1.938148e+07 1.938148e+07 1.938148e+07 2.143238e+07 2.143238e+07 1.762834e+07 -8.172882e+07 1.245873e+07 1.163820e+07 1.512253e+07 1.871054e+07 1.871054e+07 8.879202e+06 8.879202e+06 8.526606e+08 1.885090e+07 1.487131e+07 1.487131e+07 2.275573e+07 2.275573e+07 -3.095995e+10 1.483174e+07 -4.624019e+06 1.420788e+07 1.420788e+07 2.024143e+07 2.024143e+07 2.024143e+07 1.841197e+07 2.050409e+07 2.050409e+07 1.084390e+07 -2.468932e+06 2.606545e+07 1.595583e+07 1.960848e+07 1.960848e+07 1.786638e+07 1.642202e+07 3.114069e+07 2.066902e+07 1.658778e+07 1.658778e+07 1.767454e+07 1.673635e+07 2.262959e+06 2.262959e+06 1.111330e+07 1.111330e+07 1.705537e+07 1.705537e+07 4.658212e+06 8.795835e+06 6.818061e+06 3.043293e+06 -3.056372e+07 -3.056372e+07 2.167603e+07 7.837501e+06 7.837501e+06 6.644542e+06 6.644542e+06 9.058380e+06 9.058380e+06 1.896928e+07 -4.813896e+06 -4.557230e+06 1.565494e+07 2.018269e+07 7.553466e+06 1.396528e+07 1.477845e+07 1.013234e+07 1.013234e+07 2.498275e+08 2.008529e+07 2.008529e+07 2.008529e+07 1.697926e+07 7.070621e+06 1.369975e+07 1.908804e+07 -2.107067e+07 1.589504e+07 1.726783e+07 1.738679e+07 8.491887e+06 3.558501e+05 5.620923e+06 1.924598e+07 1.331944e+07 1.236608e+07 1.408314e+07 9.080298e+06 1.439515e+07 1.463361e+07 1.356659e+07 1.278832e+07 6.647193e+06 1.329224e+07 2.338897e+07 6.398430e+06 6.398430e+06 1.824566e+07 1.824566e+07 9.380180e+07 9.380180e+07 -5.256345e+06 8.004051e+06 2.437471e+07 1.013250e+05 1.013250e+05 1.013250e+05 1.013250e+05 -1.143109e+07 1.678298e+10 -3.019413e+15 1.139013e+18 6.368292e+19 1.123987e+22 2.416320e+21 2.524187e+24 2.524187e+24 2.524187e+24 5.173799e+22 1.250511e+24 2.350114e+22 8.940346e+24 6.644962e+06 6.644962e+06 6.644962e+06 4.660022e+06 5.816934e+06 5.816934e+06 5.816934e+06 -5.945722e+05 4.304645e+21 4.304645e+21 4.304645e+21 1.588859e+18 1.588859e+18 -1.260355e+07 -1.260355e+07 -1.260355e+07 -8.673797e+06 -8.673797e+06 3.725920e+22 -1.412922e+12 -1.412922e+12 -1.356806e+11 -1.560722e+12 -1.560722e+12 -5.658541e+13 1.288088e+23 6.738355e+06 6.738355e+06 6.738355e+06 3.253705e+06 3.253705e+06 3.253705e+06 2.439806e+06 4.460923e+06 1.045494e+07 1.045494e+07 1.045494e+07 -4.055683e+13 -8.359201e+12 -4.055683e+13 -4.055683e+13 8.204544e+06 7.127132e+06 -7.056403e+15 6.216762e+16 -7.056403e+15 -7.056403e+15 2.264620e+25 5.085911e+11 5.085911e+11 5.085911e+11 2.736039e+11 9.619705e+18 9.619705e+18 -1.143109e+07 8.810023e+17 8.913504e+06 8.913504e+06 4.704743e+06 2.311196e+16 2.311196e+16 -3.250449e+13 3.009344e+18 3.009344e+18 3.009344e+18 -2.402913e+18 -7.950773e+22 -7.950773e+22 -7.950773e+22 9.070209e+20 9.070209e+20 1.684237e+09 1.684237e+09 1.684237e+09 6.384782e+12 6.384782e+12 -9.121924e+17 -9.121924e+17 -9.121924e+17 -3.945684e+17 -3.664506e+06 -3.664506e+06 -3.664506e+06 -1.919452e+07 4.255926e+19 4.255926e+19 4.255926e+19 -4.660793e+18 -2.255938e+17 1.725461e+18 -3.950037e+19 -3.950037e+19 -3.950037e+19 -2.261721e+17 2.717123e+15 1.826849e+32 1.826849e+32 -3.312201e+18 -3.312201e+18 -3.312201e+18 -1.447961e+15 -1.447961e+15 -1.447961e+15 -2.506438e+16 -2.506438e+16 -2.506438e+16 1.082024e+24 1.082024e+24 -4.046965e+24 -4.046965e+24 1.215146e+06 1.215146e+06 1.215146e+06 5.582184e+05 7.150980e+20 7.150980e+20 7.150980e+20 -5.801877e+17 -5.801877e+17 -5.801877e+17 -3.679900e+17 -3.679900e+17 -3.679900e+17 -1.044741e+17 -1.044741e+17 -1.044741e+17 -5.346855e+18 -5.346855e+18 -5.346855e+18 -4.340295e+18 -4.340295e+18 2.629022e+21 2.629022e+21 -2.334956e+22 -2.334956e+22 -2.334956e+22 -5.870077e+15 -5.870077e+15 -5.870077e+15 -6.933557e+14 -6.933557e+14 -6.933557e+14 -6.080641e+18 -5.980793e+19 -1.521386e+10 -1.521386e+10 -1.521386e+10 4.742544e+18 4.742544e+18 4.742544e+18 -2.351073e+14 -2.351073e+14 -1.033716e+26 -1.033716e+26 4.754125e+28 -2.440671e+24 -2.440671e+24 -2.440671e+24 -5.243521e+16 -5.243521e+16 -5.243521e+16 -8.319987e+16 -1.670784e+16 -5.055169e+14 -5.055169e+14 -5.055169e+14 -1.048855e+08 -1.048855e+08 -1.048855e+08 -9.736421e+19 -1.436975e+18 -4.663753e+17 -4.663753e+17 -4.663753e+17 4.260343e+22 4.260343e+22 4.260343e+22 -7.595093e+17 -7.595093e+17 -1.454650e+18 -1.454650e+18 -1.618505e+16 -6.543168e+17 -6.543168e+17 -5.139826e+18 -5.139826e+18 -5.139826e+18 -5.312180e+20 4.873810e+28 4.873810e+28 1.038175e+07 1.038175e+07 1.038175e+07 2.399395e+23 -1.278218e+20 -1.278218e+20 -1.278218e+20 -8.931716e+21 -8.931716e+21 -7.230088e+22 2.764840e+20 2.764840e+20 -5.564110e+21 -5.564110e+21 3.831087e+19 3.831087e+19 3.831087e+19 -3.025444e+23 -2.366384e+22 -2.366384e+22 -2.366384e+22 -2.819845e+21 -2.819845e+21 -2.819845e+21 8.365918e+20 8.365918e+20 -1.688939e+20 -1.688939e+20 -1.688939e+20 -3.858666e+17 7.345490e+19 7.345490e+19 7.345490e+19 2.022549e+20 2.022549e+20 2.022549e+20 -8.486438e+22 -8.486438e+22 -8.486438e+22 -1.095405e+22 -1.095405e+22 -5.633153e+23 -5.162898e+20 -5.162898e+20 -4.839675e+20 -4.839675e+20 3.166393e+20 3.166393e+20 -1.098156e+19 -5.633153e+23 -5.633153e+23 4.924982e+16 4.924982e+16 4.924982e+16 5.120307e+20 1.571533e+21 -1.185913e+23 -4.342273e+16 -4.342273e+16 -6.417048e+20 -6.417048e+20 -6.417048e+20 -2.029189e+14 -1.864280e+16 -6.904410e+14 -6.904410e+14 -6.904410e+14 7.958513e+21 2.777132e+25 2.777132e+25 2.777132e+25 -4.452751e+15 -4.452751e+15 -4.452751e+15 -3.236455e+18 -5.405952e+11 -5.405952e+11 -5.405952e+11 -6.262587e+20 -1.120044e+15 -1.120044e+15 -1.120044e+15 7.892635e+16 3.173718e+22 2.250171e+23 -1.056983e+07 -1.056983e+07 -1.056983e+07 7.214343e+19 7.214343e+19 4.292456e+21 4.292456e+21 4.036816e+19 2.125525e+19 -5.634442e+18 5.079461e+19 -1.603053e+17 -1.603053e+17 5.325508e+23 5.325508e+23 5.325508e+23 2.067193e+07 2.067193e+07 2.067193e+07 2.655592e+26 2.655592e+26 2.655592e+26 6.628322e+07 6.628322e+07 2.569508e+16 2.569508e+16 1.144195e+15 1.144195e+15 -8.696887e+18 -8.696887e+18 -8.696887e+18 -3.278722e+19 -3.278722e+19 6.364760e+21 6.364760e+21 2.827539e+13 2.827539e+13 -1.283701e+20 -1.283701e+20 -1.283701e+20 -1.162408e+17 -8.219025e+06 -8.219025e+06 1.637301e+25 7.606213e+16 7.606213e+16 7.606213e+16 3.957783e+19 -7.805031e+17 -1.295402e+23 -1.295402e+23 -1.295402e+23 4.766635e+20 4.766635e+20 -7.987720e+14 -7.987720e+14 -7.987720e+14 -5.036966e+18 -1.003204e+16 -1.003204e+16 -1.003204e+16 -5.784332e+14 -5.819517e+14 1.668139e+21 -8.384558e+17 -8.384558e+17 -8.350463e+18 -8.350463e+18 -7.927305e+14 -6.432011e+14 -6.432011e+14 -6.432011e+14 5.017170e+16 -7.047890e+15 -7.047890e+15 -2.214826e+23 -2.214826e+23 -7.251847e+17 -7.251847e+17 1.658973e+06 1.658973e+06 -2.565795e+14 -5.980793e+19 3.546272e+11 3.546272e+11 3.546272e+11 -3.911905e+16 -3.093912e+16 2.051366e+07 2.051366e+07 2.051366e+07 -4.907471e+18 7.812913e+15 7.812913e+15 -1.930298e+15 1.662412e+07 1.662412e+07 1.662412e+07 -4.383530e+16 3.004105e+15 5.218648e+15 5.324794e+06 5.324794e+06 1.865877e+15 1.865877e+15 1.865877e+15 8.640940e+18 8.640940e+18 8.640940e+18 -1.619428e+16 -9.364621e+16 1.584262e+07 1.584262e+07 1.584262e+07 -6.990867e+22 -6.990867e+22 -6.990867e+22 3.454643e+21 1.745013e+07 1.745013e+07 1.745013e+07 -1.471029e+16 -1.004498e+18 -1.084811e+18 1.402931e+15 1.402931e+15 2.535481e+19 -5.038333e+16 -6.336175e+17 3.620891e+06 3.620891e+06 3.620891e+06 -3.176948e+04 9.624201e+06 9.624201e+06 9.624201e+06 -8.891707e+13 -4.809834e+17 -4.809834e+17 -9.585712e+18 1.266852e+17 6.133162e+22 6.133162e+22 1.232140e+18 1.232140e+18 3.516325e+06 4.240045e+07 4.240045e+07 2.387410e+08 -1.156700e+24 -1.156700e+24 -3.971041e+21 2.812028e+20 1.317071e+07 1.317071e+07 -2.596441e+26 1.139529e+07 1.139529e+07 1.245189e+14 4.642861e+06 8.188191e+06 8.188191e+06 2.956736e+15 1.349913e+07 1.349913e+07 1.349913e+07 5.087024e+16 5.407501e+20 5.407501e+20 3.644847e+06 3.644847e+06 7.568647e+06 4.131745e+06 -2.661886e+06 -2.661886e+06 7.508455e+06 3.302070e+11 3.302070e+11 1.862893e+13 3.110579e+15 -2.659568e+19 1.116533e+13 1.116533e+13 1.653777e+12 2.452549e+16 -5.797480e+13 -5.797480e+13 2.399395e+23 2.399395e+23 9.250854e+18 -1.495384e+18 1.065688e+07 1.065688e+07 1.065389e+10 -1.108557e+23 -1.724126e+19 -1.724126e+19 -6.495340e+15 -1.036583e+25 -9.472211e+21 1.161163e+08 1.354264e+07 6.684996e+06 6.684996e+06 9.379686e+06 -1.773739e+23 -1.773739e+23 4.820632e+23 -1.423093e+23 -1.423093e+23 -2.562218e+21 1.303220e+23 -2.562218e+21 -8.900549e+24 -6.142050e+21 5.340237e+21 -4.908681e+23 -4.908681e+23 -4.908681e+23 -1.533814e+24 2.199168e+21 2.199168e+21 2.199168e+21 5.976461e+22 5.976461e+22 3.989930e+22 -1.432664e+21 -1.432664e+21 -1.606852e+21 -8.828449e+19 -2.684453e+23 -2.684453e+23 -3.059627e+20 -1.410372e+18 -9.265617e+20 7.960109e+20 -3.969090e+21 3.758449e+22 3.758449e+22 -5.721166e+21 1.128510e+23 -5.690316e+20 -1.577018e+23 -5.965286e+21 -3.647454e+19 -3.647454e+19 6.099804e+15 2.073970e+20 -5.065018e+14 -5.644450e+20 -1.068936e+22 2.843177e+23 -9.725040e+20 -3.274353e+18 -3.274353e+18 -3.274353e+18 -6.504435e+17 2.245195e+20 2.973055e+21 8.377167e+22 8.377167e+22 -1.249177e+21 2.418502e+27 2.418502e+27 7.699783e+21 3.236286e+21 -9.130895e+21 1.508951e+17 3.059806e+15 3.059806e+15 -5.526861e+19 -5.526861e+19 -5.526861e+19 3.936483e+17 3.936483e+17 1.844282e+21 -2.918313e+17 1.620914e+17 -2.377349e+25 -2.377349e+25 -2.377349e+25 2.293716e+21 1.300053e+24 1.300053e+24 -3.675310e+15 -1.184072e+18 -3.181089e+22 -3.181089e+22 1.209817e+18 -1.217987e+15 -1.217987e+15 1.796438e+18 -6.479374e+15 -2.150822e+22 -1.166633e+16 4.042530e+20 1.989297e+16 1.989297e+16 1.978739e+21 1.978739e+21 1.978739e+21 -2.730520e+18 -1.627238e+25 -9.963906e+31 -2.915814e+20 -3.487391e+19 -2.067806e+16 -1.651927e+17 9.259665e+32 -1.541475e+33 -1.541475e+33 -1.284408e+18 -1.284408e+18 2.523521e+19 1.594604e+18 -2.748164e+21 -1.102581e+16 3.750316e+16 1.829501e+15 1.870736e+21 1.113864e+20 -1.187488e+26 -1.187488e+26 -1.187488e+26 -6.968548e+16 -5.046117e+17 9.304759e+30 9.304759e+30 1.536687e+10 1.560176e+21 3.387942e+12 3.387942e+12 7.274308e+10 1.006000e+21 -4.867208e+21 -4.867208e+21 -8.229036e+12 -1.404571e+09 -1.404571e+09 -1.228933e+23 5.620608e+19 -5.981723e+09 1.077690e+13 3.005983e+29 -2.938112e+21 -1.455215e+27 -1.776675e+22 -3.145835e+25 -1.529415e+11 3.338829e+12 1.211989e+10 7.661422e+10 1.504865e+11 -1.315324e+24 -7.958349e+06 -7.958349e+06 4.377512e+07 2.499488e+07 3.553985e+13 -1.615404e+13 -1.615404e+13 2.660386e+07 2.660386e+07 2.657114e+06 -6.201375e+19 1.482873e+07 2.025876e+24 -3.183757e+14 8.169159e+08 1.330547e+24 -3.235948e+07 2.470084e+24 8.893623e+11 8.893623e+11 2.362259e+07 -1.597711e+12 2.755118e+07 2.755118e+07 2.077524e+07 -2.582672e+06 -1.138096e+12 1.134731e+21 9.063060e+06 2.789186e+20 5.442687e+06 5.442687e+06 5.779488e+06 6.267916e+05 -4.484169e+07 4.918075e+06 2.253859e+06 1.390389e+14 8.430754e+06 -5.875095e+06 -5.875095e+06 2.719828e+09 1.222983e+07 1.021300e+07 -4.417738e+15 2.061931e+07 5.295573e+06 1.252461e+07 5.772462e+12 1.697727e+07 1.697727e+07 9.278831e+06 2.708145e+06 3.133198e+17 3.133198e+17 1.828433e+07 1.828433e+07 1.828433e+07 5.264028e+08 2.179806e+07 -9.071991e+07 1.820366e+23 5.788656e+06 2.456685e+07 -6.274670e+17 2.522143e+07 2.522143e+07 1.046612e+07 1.869904e+16 2.862148e+07 6.924621e+06 2.634262e+07 7.346893e+06 2.275742e+07 1.154894e+07 1.154894e+07 -1.224708e+07 -4.840897e+07 1.401197e+07 4.663467e+06 -9.693397e+06 -9.693397e+06 -9.693397e+06 1.096617e+07 1.238586e+07 1.201503e+07 4.594070e+06 4.594070e+06 4.594070e+06 7.317448e+06 8.442711e+05 8.442711e+05 2.109562e+07 1.237861e+07 1.744708e+07 9.442750e+06 2.116553e+07 9.367930e+06 3.731204e+06 1.181384e+07 1.058430e+07 -1.250574e+08 9.361608e+06 9.894306e+06 6.652755e+06 1.859994e+07 1.859994e+07 2.227733e+07 2.227733e+07 8.393934e+06 2.473605e+07 1.314374e+07 3.194120e+06 2.563446e+07 1.503261e+07 1.541856e+07 7.013593e+06 9.315716e+17 8.156806e+06 1.454953e+07 1.912048e+07 1.991235e+07 1.329576e+07 1.938662e+07 2.376995e+07 2.973060e+07 -4.085902e+22 8.635956e+06 8.219431e+05 1.879561e+07 1.879561e+07 4.273673e+06 4.273673e+06 3.793671e+25 3.793671e+25 9.701289e+06 -8.175561e+06 -1.921339e+10 9.483014e+06 -2.883812e+12 1.042484e+07 9.501469e+06 1.041847e+07 -6.840614e+12 -3.019413e+15 3.928061e+17 -1.259746e+14 -5.943035e+07 2.199072e+06 1.867404e+06 -2.562218e+21 -7.670378e+21 1.934887e+21 -3.263018e+24 -1.773739e+23 4.820632e+23 4.820632e+23 -4.188563e+22 3.682537e+23 -1.533814e+24 -1.533814e+24 5.976461e+22 -2.616947e+22 -1.606852e+21 -1.606852e+21 -8.828449e+19 -3.059627e+20 -9.472211e+21 1.494872e+22 -1.432664e+21 -4.896398e+21 -3.293572e+21 -3.969090e+21 -3.969090e+21 2.073970e+20 -3.647454e+19 1.230300e+18 -9.686978e+16 -1.481260e+19 -2.402913e+18 -1.460568e+18 -1.410372e+18 6.099804e+15 -3.550087e+18 -2.918313e+17 1.209817e+18 -1.217987e+15 -6.479374e+15 3.059806e+15 -5.330178e+14 2.764840e+20 1.943771e+20 3.707111e+23 8.225583e+24 2.418502e+27 1.980683e+28 -9.963906e+31 1.826849e+32 2.534985e+31 -1.627238e+25 -1.060183e+25 -9.846720e+21 1.113864e+20 1.113864e+20 1.796438e+18 1.796438e+18 -3.181089e+22 -1.641114e+18 4.069619e+19 -4.145958e+18 -1.182149e+12 1.536687e+10 1.536687e+10 -5.981723e+09 -1.404571e+09 5.718889e+09 3.387942e+12 4.357129e+14 4.357129e+14 -8.229036e+12 -1.365963e+12 5.195411e+09 1.161163e+08 -3.235948e+07 -3.235948e+07 2.936062e+07 -7.958349e+06 4.377512e+07 8.215123e+07 2.362259e+07 2.338650e+06 2.338650e+06 7.845214e+05 6.267916e+05 5.779488e+06 5.779488e+06 9.278831e+06 4.918075e+06 4.918075e+06 9.063060e+06 2.077524e+07 2.077524e+07 1.222983e+07 1.021300e+07 2.755118e+07 3.112457e+07 2.456685e+07 2.061931e+07 2.061931e+07 2.522143e+07 1.252461e+07 1.252461e+07 9.540511e+06 9.442750e+06 1.954010e+07 1.354264e+07 1.354264e+07 1.459769e+07 7.317448e+06 7.317448e+06 7.067115e+06 6.684996e+06 9.379686e+06 4.460923e+06 4.460923e+06 5.437703e+06 7.013593e+06 6.996678e+06 3.731204e+06 1.546246e+06 8.219431e+05 1.013250e+05 1.013250e+05 1.013250e+05 1.013250e+05 1.013250e+05 3.692639e+06 1.261596e+07 8.004051e+06 3.691129e+07 1.732203e+09 3.805498e+12 3.805498e+12 3.805498e+12 -2.431722e+07 -2.431722e+07 -2.431722e+07 -1.464949e+08 -1.464949e+08 3.003218e+06 3.003218e+06 -1.618513e+13 -1.618513e+13 -1.618513e+13 -1.002466e+12 -1.002466e+12 -5.902800e+12 -5.902800e+12 -5.902800e+12 2.096025e+12 1.732203e+09 1.732203e+09 4.933971e+09 7.803273e+06 7.803273e+06 7.803273e+06 8.952247e+06 8.952247e+06 1.052675e+07 1.128735e+07 1.128735e+07 1.165508e+07 3.692639e+06 9.201568e+06 1.094966e+07 3.844510e+06 3.844510e+06 2.670382e+06 2.670382e+06 8.776497e+05 -1.629334e+06 1.248116e+17 1.248116e+17 1.248116e+17 -1.647009e+14 -1.647009e+14 -1.926100e+14 -2.014967e+18 -2.014967e+18 -2.014967e+18 -9.492865e+17 1.261222e+16 2.451644e+11 -2.261418e+14 -2.261418e+14 6.415856e+14 -2.453457e+17 -2.453457e+17 -4.716369e+16 3.507951e+13 3.507951e+13 3.507951e+13 5.015773e+21 5.015773e+21 5.015773e+21 7.040417e+23 7.040417e+23 7.040417e+23 -1.354405e+09 -1.354405e+09 -1.354405e+09 -4.234171e+18 -4.234171e+18 -4.234171e+18 -1.310131e+14 -1.310131e+14 -1.310131e+14 -9.893738e+13 -1.024815e+22 -1.024815e+22 2.686550e+17 2.686550e+17 2.686550e+17 5.476786e+22 9.565214e+21 -1.081085e+20 -1.081085e+20 4.189705e+08 4.189705e+08 4.189705e+08 -1.645817e+09 -1.645817e+09 1.587743e+14 2.091969e+13 2.091969e+13 5.463993e+13 5.463993e+13 5.463993e+13 4.172154e+09 4.172154e+09 -2.635287e+20 -2.635287e+20 -2.635287e+20 7.149549e+19 -8.674787e+20 1.450602e+19 -2.452747e+16 -2.452747e+16 -1.618363e+20 -1.618363e+20 -1.618363e+20 7.415618e+20 -5.935943e+21 -5.935943e+21 3.630610e+19 3.630610e+19 3.630610e+19 6.129302e+08 6.129302e+08 6.129302e+08 -5.392118e+19 -5.392118e+19 -5.392118e+19 -8.290990e+17 -1.149724e+17 -4.793989e+24 -4.793989e+24 -4.793989e+24 1.684278e+23 1.846504e+25 1.846504e+25 1.274715e+23 -3.573148e+14 -3.573148e+14 -3.573148e+14 -3.982099e+24 -3.982099e+24 2.488634e+16 2.488634e+16 -1.367457e+19 -1.367457e+19 -1.367457e+19 -2.209707e+23 -2.209707e+23 -2.209707e+23 -4.292570e+21 -4.292570e+21 -4.292570e+21 4.874733e+25 4.874733e+25 -1.928899e+17 -1.928899e+17 5.323867e+20 5.323867e+20 5.323867e+20 4.572699e+16 -1.504245e+18 -1.504245e+18 -1.504245e+18 1.049257e+26 -6.241181e+15 -6.241181e+15 5.004716e+19 5.004716e+19 5.004716e+19 2.137321e+25 2.137321e+25 2.137321e+25 -1.867526e+22 3.742504e+21 3.742504e+21 3.742504e+21 1.792995e+23 1.792995e+23 1.792995e+23 -2.299358e+23 1.776599e+24 8.119884e+18 8.119884e+18 8.119884e+18 5.114705e+18 5.114705e+18 2.363725e+20 2.363725e+20 2.363725e+20 -1.056745e+24 -1.056745e+24 -1.056745e+24 -1.430342e+24 6.188902e+24 -1.293477e+22 -1.293477e+22 4.773177e+13 4.773177e+13 4.773177e+13 5.530566e+23 5.530566e+23 2.570908e+21 2.570908e+21 -5.807365e+21 -2.896442e+22 -2.896442e+22 -2.912676e+21 -2.912676e+21 -2.912676e+21 -3.692954e+19 2.307411e+21 5.751307e+21 5.751307e+21 1.008611e+17 1.008611e+17 7.945970e+18 7.945970e+18 7.945970e+18 -7.192183e+19 -7.192183e+19 -9.937970e+10 -9.937970e+10 -9.937970e+10 -4.056700e+16 -4.056700e+16 -4.056700e+16 8.830136e+16 -6.414730e+21 3.298521e+20 3.298521e+20 3.298521e+20 -1.005109e+23 -1.005109e+23 -1.005109e+23 -3.475456e+20 8.108214e+20 -6.414730e+21 -2.464808e+20 -1.645416e+18 -1.645416e+18 -1.645416e+18 -3.828223e+18 -3.828223e+18 2.562715e+18 2.562715e+18 2.562715e+18 1.933408e+19 1.933408e+19 1.933408e+19 -1.528291e+20 3.899100e+10 3.899100e+10 3.899100e+10 5.976544e+15 -7.598779e+19 -7.598779e+19 1.851272e+19 -1.148367e+13 -1.148367e+13 -1.941816e+17 -3.640933e+19 -3.640933e+19 5.767501e+19 5.767501e+19 -3.737843e+21 -4.726271e+18 -3.378636e+16 -3.378636e+16 -3.378636e+16 8.410014e+18 -4.677693e+11 -4.677693e+11 -6.373452e+20 -2.290485e+19 -2.290485e+19 3.943279e+18 1.691188e+07 1.691188e+07 1.691188e+07 -2.074911e+12 -2.074911e+12 4.914474e+16 4.914474e+16 -6.683353e+14 -6.683353e+14 -3.210654e+18 -3.686393e+12 -3.686393e+12 -3.686393e+12 -1.275078e+16 -1.275078e+16 -1.275078e+16 1.450602e+19 1.459555e+16 1.459555e+16 -7.405834e+12 -2.088635e+12 -2.417681e+21 -7.348181e+17 -7.340859e+15 -7.340859e+15 8.928048e+09 8.928048e+09 8.928048e+09 -2.186917e+14 6.063203e+06 6.063203e+06 6.063203e+06 3.780840e+11 3.780840e+11 -6.638847e+14 2.096046e+19 -3.325707e+07 -3.325707e+07 -3.325707e+07 2.791978e+07 2.791978e+07 2.791978e+07 -1.657853e+08 -1.657853e+08 3.095337e+08 3.095337e+08 -4.791206e+07 -4.791206e+07 3.195086e+12 7.793292e+18 7.793292e+18 7.662246e+15 7.662246e+15 3.024335e+13 3.024335e+13 2.567372e+16 -1.819006e+06 6.790250e+05 6.790250e+05 6.790250e+05 1.394572e+12 6.325302e+07 6.325302e+07 -3.236991e+11 -3.236991e+11 1.992766e+16 -2.160415e+18 -2.638339e+14 1.