<?xml version="1.0"?>
 <VTKFile type="UnstructuredGrid" version="1.0" byte_order="LittleEndian" header_type="UInt64">
  <UnstructuredGrid>
    <FieldData>
     <DataArray type="Float64" Name="TimeValue" NumberOfTuples="1" format="ascii">
5e-08
     </DataArray>
    </FieldData>
   <Piece NumberOfPoints="3548" NumberOfCells="3379">
    <PointData>
     <DataArray type="Float64" Name="pointP" format="ascii">
-2.102522e+40 -2.551607e+40 -9.616263e+40 2.376650e+39 -1.758895e+41 -5.042919e+41 -1.946953e+41 -2.441279e+40 -1.442259e+41 -7.962649e+42 2.788050e+41 -1.981802e+43 -4.324266e+43 -1.104870e+41 -7.001102e+42 -3.076324e+41 -5.421496e+41 -5.674595e+42 -5.481457e+42 1.321699e+44 7.198132e+41 -5.524601e+42 1.478736e+42 -8.330813e+41 -2.706860e+43 -2.642675e+43 -2.253146e+43 -8.753946e+43 2.859774e+42 -2.807940e+43 -1.940492e+43 -5.585962e+42 -1.588489e+43 -2.704986e+43 -8.271470e+43 6.006618e+43 1.198883e+46 -2.721370e+44 -5.724099e+41 -6.860530e+44 -4.982910e+44 -9.933090e+43 -3.899122e+45 1.673556e+44 -1.704363e+43 -6.055555e+43 9.478970e+44 -5.251723e+46 6.101610e+46 1.650696e+44 -6.168769e+43 2.897357e+43 -1.934742e+43 -1.282497e+44 -3.615427e+43 -7.093462e+43 3.167205e+44 -4.138943e+44 -5.285212e+45 -1.495223e+45 -6.582314e+44 -3.201552e+44 -8.767437e+44 -7.478764e+42 2.924914e+43 -7.766214e+43 -1.441357e+45 -3.517185e+45 -2.066857e+45 -1.088088e+44 -3.800432e+44 7.533805e+42 -4.224843e+44 2.231253e+43 -1.777812e+43 -5.230746e+43 -4.344790e+43 1.504416e+44 -6.300871e+41 4.268058e+39 -5.461051e+40 -5.461051e+40 -3.692300e+41 -2.179870e+39 1.109388e+38 -3.587799e+38 -3.587799e+38 -3.380117e+38 -2.223377e+38 -6.288087e+37 3.206462e+35 1.120442e+34 -5.065483e+38 -3.250887e+38 3.226801e+38 4.170160e+39 4.192379e+37 -6.280580e+37 -2.746213e+37 3.772117e+35 4.048652e+34 1.169155e+32 1.169155e+32 -1.200166e+36 8.982926e+33 1.283158e+33 1.896887e+36 1.290785e+36 4.587569e+33 -2.614489e+32 1.769720e+32 -4.381560e+32 -3.951436e+34 -2.896379e+34 -3.387517e+34 -9.937608e+33 -7.843455e+32 -5.624240e+31 -7.024806e+30 6.859205e+30 8.805229e+33 2.641610e+32 1.383357e+30 -4.654975e+29 -1.118333e+30 5.005534e+28 -2.335745e+29 1.304052e+29 1.304052e+29 -1.459024e+30 5.231908e+29 2.357215e+29 2.357215e+29 -3.554662e+29 -2.306702e+30 -2.306702e+30 1.469110e+28 -3.620100e+28 -2.603169e+28 -2.046129e+29 -2.046129e+29 1.918112e+28 1.918112e+28 -1.338575e+28 -4.566738e+29 1.078844e+28 -2.517329e+27 -2.024151e+27 2.450307e+25 2.450307e+25 -5.826069e+24 -1.647330e+24 -3.929332e+22 -1.254676e+21 -1.254676e+21 -1.085687e+24 -1.085687e+24 -1.085687e+24 -3.216301e+24 1.638600e+23 1.638600e+23 1.638600e+23 5.408851e+24 5.408851e+24 5.408851e+24 7.606134e+24 1.422517e+31 1.422517e+31 1.422517e+31 4.166396e+31 2.611027e+31 2.611027e+31 2.611027e+31 -7.632114e+31 -1.178185e+38 -1.178185e+38 -1.178185e+38 6.273004e+36 2.477247e+36 -2.594138e+35 -2.594138e+35 -2.594138e+35 -3.054782e+35 -3.508226e+32 -3.508226e+32 -3.508226e+32 -2.751698e+36 -2.751698e+36 -2.751698e+36 -1.334300e+36 -5.936435e+35 9.804285e+39 9.804285e+39 9.804285e+39 6.474088e+40 -6.899901e+37 -6.899901e+37 -6.899901e+37 -7.443378e+37 -7.443378e+37 4.396595e+41 4.396595e+41 4.396595e+41 7.507244e+41 4.472546e+42 -9.945616e+44 -9.945616e+44 -9.945616e+44 -4.337377e+45 -4.793051e+46 6.198303e+41 6.198303e+41 6.198303e+41 1.388055e+41 -3.254985e+44 -3.254985e+44 -3.254985e+44 -1.253123e+40 -1.253123e+40 8.512403e+40 8.512403e+40 2.681148e+42 2.681148e+42 2.681148e+42 7.992893e+44 -4.359223e+41 -4.359223e+41 -4.359223e+41 -1.571011e+43 -9.584281e+41 -9.584281e+41 -6.355459e+41 -6.355459e+41 -2.363625e+42 -2.363625e+42 -2.363625e+42 -1.976281e+43 -1.976281e+43 -6.514181e+42 -6.514181e+42 -6.514181e+42 1.720382e+42 1.720382e+42 -8.892554e+38 -3.578793e+39 -3.578793e+39 -3.578793e+39 -2.339290e+40 1.009784e+37 1.009784e+37 1.009784e+37 -1.573743e+37 -1.573743e+37 1.996384e+38 1.996384e+38 1.996384e+38 2.623788e+38 2.623788e+38 -1.112695e+37 -1.112695e+37 -1.112695e+37 -3.140426e+38 -3.140426e+38 -2.329507e+38 -2.329507e+38 -2.329507e+38 -1.704796e+36 -1.704796e+36 -3.431246e+28 -3.431246e+28 -3.431246e+28 -1.060459e+28 -3.191597e+31 -3.191597e+31 -3.191597e+31 -1.117830e+33 -1.000179e+35 -1.000179e+35 -1.000179e+35 -8.189074e+34 -8.189074e+34 3.175845e+30 3.175845e+30 3.175845e+30 2.069601e+30 2.069601e+30 2.069601e+30 -5.011734e+29 -5.011734e+29 1.366295e+28 1.366295e+28 1.366295e+28 6.564924e+28 6.564924e+28 7.383316e+32 7.383316e+32 7.383316e+32 2.092161e+32 -1.196392e+35 -1.196392e+35 -6.540851e+35 -6.540851e+35 -6.540851e+35 1.737684e+35 1.737684e+35 2.360529e+35 2.360529e+35 -3.454495e+36 -3.454495e+36 -3.454495e+36 -9.696335e+35 -2.130734e+40 -2.130734e+40 -2.130734e+40 -1.340359e+39 2.090742e+36 2.090742e+36 4.522633e+38 4.522633e+38 4.522633e+38 -1.006955e+39 -1.006955e+39 -1.006955e+39 1.852760e+38 1.852760e+38 2.429907e+44 2.429907e+44 2.429907e+44 -5.938150e+42 -5.938150e+42 2.236336e+43 2.236336e+43 4.102796e+42 1.395195e+43 1.395195e+43 1.395195e+43 8.911740e+41 8.911740e+41 2.859774e+42 -8.951001e+41 -8.951001e+41 -8.951001e+41 4.664573e+42 4.192017e+41 1.267245e+42 -2.509342e+43 -2.509342e+43 -2.509342e+43 -1.874620e+44 -1.874620e+44 -1.874620e+44 -4.600010e+43 -4.600010e+43 -4.600010e+43 3.908898e+38 3.908898e+38 3.908898e+38 -4.178868e+38 -4.178868e+38 2.075771e+37 2.075771e+37 2.075771e+37 -3.275688e+39 -3.275688e+39 9.669474e+35 9.669474e+35 -2.193078e+36 -2.193078e+36 -6.376195e+35 -6.376195e+35 2.125273e+37 -5.771831e+32 -5.771831e+32 -3.197506e+32 -3.197506e+32 -8.675118e+28 -8.675118e+28 -1.049581e+18 3.422452e+19 -1.049581e+18 -1.049581e+18 1.036119e+32 -8.564033e+32 -8.564033e+32 -3.278367e+39 -3.278367e+39 -3.278367e+39 4.409376e+39 4.409376e+39 4.409376e+39 4.277458e+36 3.234106e+39 3.234106e+39 -1.364205e+41 -1.364205e+41 2.432287e+40 -4.729918e+39 -3.506936e+43 -3.201552e+44 -1.075791e+43 -1.075791e+43 -2.737155e+44 -2.737155e+44 -7.922001e+44 -1.940492e+43 8.166042e+41 8.166042e+41 -6.655942e+43 -6.655942e+43 -6.655942e+43 4.087644e+44 1.468183e+42 -1.758895e+41 -2.729700e+40 -2.729700e+40 -8.271470e+43 -6.735398e+40 -6.735398e+40 -8.892554e+38 -3.885008e+41 -3.885008e+41 -7.798518e+42 -1.726233e+40 -1.726233e+40 -1.726233e+40 -9.820867e+42 -2.323130e+45 -2.323130e+45 -8.145349e+43 7.082033e+40 7.082033e+40 7.082033e+40 5.296977e+41 5.296977e+41 -1.569198e+40 -2.176454e+42 -2.176454e+42 6.341632e+42 -2.441279e+40 -3.839261e+40 1.514420e+43 1.514420e+43 -9.575627e+42 5.819146e+42 -4.866209e+42 -4.866209e+42 -1.986142e+42 3.167205e+44 1.667149e+43 1.667149e+43 -1.032324e+43 -5.042919e+41 -4.295359e+40 -5.063631e+41 -9.863785e+41 -2.757978e+44 -8.062811e+40 -8.062811e+40 -6.800040e+45 -2.298831e+42 -1.902616e+44 8.972249e+43 8.972249e+43 8.972249e+43 -1.972489e+45 -1.972489e+45 7.885979e+38 7.885979e+38 -1.002957e+43 6.611567e+41 -3.292147e+39 -5.602939e+44 -4.177376e+41 -4.177376e+41 -9.267850e+38 -1.063297e+39 -1.292296e+41 7.962679e+39 -9.249538e+39 -1.970589e+41 1.417572e+41 6.193803e+42 -3.885723e+42 -3.885723e+42 2.242553e+41 -1.364281e+44 1.804284e+44 1.608155e+44 3.593980e+41 3.409786e+37 3.409786e+37 -1.273724e+39 2.194222e+40 1.713569e+40 1.713569e+40 5.125827e+42 -1.402805e+40 -1.402805e+40 -1.402805e+40 -1.021213e+40 -3.644464e+41 -9.223462e+41 4.580774e+39 4.580774e+39 4.580774e+39 -1.147792e+40 -2.498214e+41 -2.653178e+41 3.945153e+39 3.945153e+39 2.067737e+41 -1.888026e+41 2.462706e+41 8.122371e+40 -1.840349e+44 2.149380e+39 -6.429195e+40 -4.572584e+42 -4.572584e+42 -5.438354e+41 -5.438354e+41 -2.926546e+41 -2.926546e+41 3.016299e+40 3.016299e+40 -1.415074e+41 -5.316795e+41 -1.162646e+39 -1.162646e+39 6.927271e+40 6.927271e+40 -2.151477e+40 2.208919e+42 -7.378875e+38 -1.876866e+39 -1.751109e+42 -7.155070e+40 -1.257295e+43 -1.257295e+43 -1.796665e+42 -9.081923e+41 -3.214752e+37 1.536466e+41 1.536466e+41 -1.172750e+40 -3.738716e+39 -2.190431e+42 2.948198e+41 -9.939828e+41 -4.562842e+39 7.096735e+43 -2.830083e+38 -2.830083e+38 8.626310e+40 -5.679069e+36 -4.319742e+41 -1.181926e+40 -1.024127e+38 -5.035410e+34 -5.035410e+34 -5.035410e+34 7.938928e+31 7.938928e+31 -4.096331e+40 -1.059828e+40 -1.825447e+39 -2.197982e+40 -4.252109e+39 3.498777e+41 -3.086803e+39 -1.199292e+41 6.480412e+41 -1.116605e+40 -1.195774e+40 2.126445e+42 2.126445e+42 2.126445e+42 3.116127e+39 2.816023e+38 4.601270e+38 1.039701e+38 -2.541127e+38 -2.541127e+38 -2.908319e+42 -5.483372e+38 -5.483372e+38 -2.509623e+38 -2.509623e+38 2.590890e+38 -6.798726e+38 -1.876239e+39 -1.876239e+39 1.013112e+38 1.013112e+38 -5.355251e+39 -2.619494e+37 -2.619494e+37 -3.056826e+37 8.362770e+38 8.362770e+38 1.750500e+38 1.750500e+38 1.750500e+38 1.795307e+39 1.154962e+37 -8.277153e+35 -1.206344e+38 -1.206344e+38 3.287900e+39 -4.836959e+37 -2.641769e+37 2.100668e+36 7.867629e+39 1.607650e+40 -4.511008e+37 6.449754e+35 -2.412119e+38 -2.412119e+38 1.072272e+36 1.072272e+36 1.955583e+34 1.633280e+38 -2.580108e+37 -2.580108e+37 -1.523004e+37 -1.282565e+36 -4.836959e+37 -5.009462e+36 -2.049549e+35 -2.049549e+35 6.714617e+34 -3.024850e+38 -3.024850e+38 2.194849e+38 -2.144903e+38 -2.144903e+38 -1.124606e+34 -1.124606e+34 1.107703e+34 2.781942e+36 2.781942e+36 2.781942e+36 -1.493050e+37 1.056527e+39 -4.705677e+33 8.229551e+34 -2.733519e+34 -2.733519e+34 -1.272292e+37 -1.272292e+37 -2.178726e+39 4.063631e+35 -6.725896e+35 3.442738e+39 3.442738e+39 3.557981e+35 -1.890880e+38 -1.890880e+38 2.195985e+36 -1.070384e+36 -8.926757e+33 1.355390e+36 1.355390e+36 1.355390e+36 8.115998e+32 2.153091e+33 -2.616720e+36 -1.406775e+36 -1.406775e+36 -2.472207e+36 -2.472207e+36 -2.472207e+36 -7.664498e+35 -4.925322e+36 -7.322323e+34 -7.322323e+34 4.626702e+34 -4.082836e+36 3.950794e+34 3.950794e+34 3.950794e+34 -2.438236e+36 -2.490165e+35 -1.824854e+35 -3.856804e+31 1.087642e+32 -5.478209e+31 3.702317e+35 -3.956122e+35 2.191866e+34 1.460688e+33 1.460688e+33 -5.144575e+34 -5.144575e+34 -2.182099e+36 -4.971304e+35 -9.103732e+32 -9.103732e+32 -9.103732e+32 -3.175383e+34 1.210320e+31 -2.244394e+36 -1.347685e+30 6.547164e+29 -8.891524e+33 1.202867e+36 6.970363e+34 -7.525523e+34 -1.107827e+35 -2.689720e+33 -2.689720e+33 -4.246406e+32 -4.246406e+32 -4.246406e+32 -1.574729e+30 -7.327704e+33 -9.895876e+32 -4.037650e+32 3.376697e+33 -3.239712e+32 -1.713393e+31 -1.043045e+31 -9.968524e+31 4.081524e+32 4.081524e+32 4.081524e+32 -8.833204e+31 2.186791e+32 -3.265510e+31 -3.265510e+31 -4.164678e+31 -4.164678e+31 8.931095e+30 3.316246e+31 -4.521269e+31 -9.578881e+32 -3.353615e+31 2.770032e+28 2.199162e+28 2.199162e+28 2.996145e+29 2.315120e+28 2.315120e+28 -1.018207e+28 -1.018207e+28 9.266664e+26 9.266664e+26 -5.205973e+29 -1.194246e+25 -1.194246e+25 5.541629e+28 -1.380958e+23 2.212695e+23 3.092536e+20 6.886196e+22 6.886196e+22 6.886196e+22 1.607233e+40 1.607233e+40 1.607233e+40 -1.139829e+39 -1.139829e+39 -2.392851e+26 -2.392851e+26 -2.392851e+26 -4.235978e+24 -2.655704e+39 -2.655704e+39 9.707554e+37 9.707554e+37 -1.500782e+41 -1.500782e+41 -1.500782e+41 -7.540749e+27 -7.540749e+27 -7.540749e+27 -2.087654e+25 -3.826147e+30 -3.826147e+30 -3.826147e+30 1.150548e+30 9.863444e+30 9.863444e+30 -1.364926e+34 -1.364926e+34 -1.364926e+34 -2.449228e+32 -2.449228e+32 -2.449228e+32 4.484421e+38 4.484421e+38 4.484421e+38 3.478700e+37 3.478700e+37 3.478700e+37 -1.898524e+37 5.143059e+29 5.143059e+29 5.143059e+29 -7.683639e+30 -7.683639e+30 -7.683639e+30 -2.346449e+31 -2.346449e+31 -2.346449e+31 -3.972092e+27 -3.972092e+27 -3.972092e+27 1.831691e+29 1.831691e+29 -8.165153e+23 -8.165153e+23 6.699121e+25 4.500396e+26 -3.936733e+21 -3.936733e+21 -3.936733e+21 -2.333416e+28 -2.333416e+28 2.463400e+32 2.463400e+32 2.463400e+32 8.423405e+31 8.423405e+31 8.423405e+31 -1.722047e+33 -1.722047e+33 -1.722047e+33 -4.361297e+33 -3.101804e+32 -3.101804e+32 -3.101804e+32 7.022429e+32 -1.995966e+34 -1.995966e+34 -1.995966e+34 -9.099850e+33 -9.099850e+33 -9.099850e+33 -3.346970e+32 1.273999e+33 4.338602e+33 4.338602e+33 4.338602e+33 6.090990e+33 6.090990e+33 -7.167317e+33 -7.167317e+33 1.733912e+34 2.996721e+33 2.996721e+33 -1.108325e+30 -1.108325e+30 -1.108325e+30 4.177342e+29 4.177342e+29 5.409249e+29 5.409249e+29 5.409249e+29 3.527537e+32 -5.129393e+26 -5.129393e+26 -5.129393e+26 -1.454956e+25 -7.618805e+27 -5.376342e+19 -5.376342e+19 -7.512766e+22 -7.512766e+22 2.987798e+30 2.987798e+30 2.987798e+30 9.291331e+29 2.697175e+29 2.328871e+40 2.328871e+40 7.015858e+33 2.457199e+35 2.940315e+32 2.940315e+32 2.940315e+32 -2.095980e+34 -2.020675e+40 -2.020675e+40 -1.112521e+33 3.981652e+32 3.981652e+32 -1.732092e+34 4.967036e+29 4.967036e+29 8.620480e+30 8.620480e+30 8.620480e+30 -1.577394e+36 -1.577394e+36 -1.577394e+36 -7.010113e+36 1.819045e+38 -1.695750e+30 7.309884e+39 7.309884e+39 7.309884e+39 -1.953962e+38 -5.978409e+36 -5.978409e+36 -2.175634e+31 -2.175634e+31 1.046103e+32 -3.678213e+38 -3.678213e+38 3.225323e+39 3.225323e+39 -1.707717e+33 -1.707717e+33 -1.707717e+33 -8.133023e+28 -8.133023e+28 2.667191e+26 2.667191e+26 -8.304936e+30 1.204534e+32 1.204534e+32 1.204534e+32 1.253395e+32 1.253395e+32 -3.642469e+31 -3.642469e+31 1.091343e+37 1.091343e+37 -7.160083e+27 -7.160083e+27 -2.067875e+32 -7.577870e+30 -7.577870e+30 -4.106778e+29 -4.106778e+29 -4.702999e+34 -4.702999e+34 -4.702999e+34 -6.424341e+29 -6.424341e+29 -6.424341e+29 1.568961e+36 3.640352e+34 1.000304e+31 7.515597e+31 7.515597e+31 -8.049361e+31 -1.237916e+34 -3.728067e+29 -3.728067e+29 1.325378e+30 1.325378e+30 1.325378e+30 1.678702e+35 1.176399e+37 1.176399e+37 2.867382e+29 2.867382e+29 1.593588e+29 6.369393e+29 -3.884933e+29 -3.884933e+29 -9.830699e+29 -9.830699e+29 -9.830699e+29 5.430309e+29 5.430309e+29 -1.409384e+28 -1.618548e+32 -1.387956e+29 -1.387956e+29 -9.220233e+23 -4.013723e+31 -4.013723e+31 -4.604260e+31 -1.158487e+30 -1.158487e+30 4.601707e+30 1.642873e+28 1.642873e+28 3.063760e+33 3.063760e+33 1.301148e+29 -3.348734e+31 -3.348734e+31 -7.765187e+28 -7.765187e+28 -5.262455e+30 2.534934e+29 3.173963e+30 3.173963e+30 -5.557988e+29 -2.569770e+31 1.452902e+33 1.452902e+33 2.441187e+31 -2.257314e+30 -9.280227e+27 -9.280227e+27 -9.280227e+27 -7.604701e+27 -7.604701e+27 -7.604701e+27 -4.428028e+30 -4.428028e+30 -3.626693e+25 -3.626693e+25 -3.626693e+25 -8.878740e+30 5.415766e+27 -3.372176e+28 -4.902227e+28 -1.557523e+27 -1.557523e+27 -1.557523e+27 -1.166462e+30 1.134284e+29 1.134284e+29 -1.071638e+29 -1.071638e+29 -1.071638e+29 1.254242e+23 4.782886e+30 -8.555180e+28 -8.555180e+28 2.150927e+27 2.150927e+27 2.150927e+27 -8.175547e+29 -7.118625e+27 -1.825128e+31 -1.825128e+31 -1.825128e+31 4.957854e+31 4.957854e+31 3.132049e+31 1.297618e+24 -3.610893e+28 9.063582e+28 -2.240252e+29 -2.240252e+29 6.770595e+26 -2.260231e+26 -2.260231e+26 -3.788941e+24 -3.788941e+24 -3.788941e+24 -5.593251e+27 -2.730713e+28 2.438812e+31 -1.090880e+27 -5.425783e+25 7.364196e+25 -1.294864e+32 2.492577e+23 2.492577e+23 1.968605e+22 -4.908894e+27 -4.908894e+27 3.281709e+27 1.649894e+22 1.649894e+22 1.649894e+22 6.732435e+24 6.732435e+24 6.583848e+29 6.583848e+29 -5.473857e+29 5.015631e+26 5.015631e+26 -4.821691e+24 -2.266445e+29 -3.672263e+28 -4.327777e+23 -3.216768e+22 -3.323316e+25 -1.020410e+28 -3.216768e+22 1.051608e+21 -2.136546e+40 -2.136546e+40 -1.770900e+35 -1.770900e+35 -1.525256e+39 -1.525256e+39 1.192662e+36 2.984391e+40 -3.406014e+38 2.187323e+37 -1.169560e+40 -3.639286e+22 -3.639286e+22 -4.937670e+27 2.971416e+32 -4.519311e+32 -4.517148e+25 -4.517148e+25 -2.215372e+40 1.403609e+39 -8.023002e+40 3.164232e+40 3.164232e+40 3.164232e+40 9.640701e+36 9.640701e+36 9.640701e+36 4.533970e+41 3.130104e+39 3.130104e+39 -2.170025e+38 -2.170025e+38 -2.744200e+38 -6.668019e+36 1.355322e+38 -1.572034e+28 -7.111195e+24 -1.835086e+23 4.635293e+20 -8.097701e+26 -8.097701e+26 -1.196675e+31 1.948717e+41 2.424641e+36 -1.665393e+39 -1.772938e+39 -1.772938e+39 -1.648439e+40 2.005413e+34 -2.240506e+35 -1.439838e+34 -1.439838e+34 5.384188e+29 4.606652e+24 1.718025e+27 -3.311815e+22 -3.311815e+22 -3.311815e+22 -1.276954e+30 -6.098449e+27 1.170094e+28 1.170094e+28 -2.425173e+33 5.798838e+28 5.798838e+28 -3.200216e+34 -8.981365e+32 -2.937815e+31 -2.937815e+31 -3.675513e+26 -3.675513e+26 -3.675513e+26 -3.764099e+25 -3.764099e+25 5.076885e+21 1.808552e+32 -4.153838e+31 -8.451855e+31 -3.125679e+30 2.393794e+27 6.037693e+36 2.545614e+33 5.307063e+33 1.597984e+28 5.252116e+32 -1.504401e+30 -2.818582e+31 -8.372861e+27 -8.372861e+27 3.827163e+27 -4.735780e+27 2.357580e+28 4.858839e+27 1.311756e+27 -6.523137e+25 -7.861246e+27 -7.861246e+27 -2.650488e+25 -1.478518e+28 -2.681138e+27 -8.203682e+27 -8.203682e+27 -1.894425e+29 -2.106320e+29 -1.663809e+27 -8.836079e+28 -8.213822e+26 -6.765046e+28 3.891885e+27 -5.585901e+27 4.042644e+26 4.042644e+26 4.042644e+26 3.037050e+27 3.999751e+27 3.999751e+27 -5.844854e+26 -5.844854e+26 4.401175e+25 1.102201e+27 1.102201e+27 -3.283420e+26 -3.269646e+27 -1.846422e+27 -9.279016e+25 -1.928958e+25 2.245709e+26 -9.220233e+23 -9.220233e+23 7.434021e+22 -5.861648e+29 -3.267361e+24 -3.267361e+24 1.600048e+25 1.600048e+25 -2.198396e+27 -2.351685e+24 4.705297e+24 -4.370909e+22 -4.370909e+22 -1.870092e+43 -1.870092e+43 -1.892097e+44 -6.410933e+45 -2.415025e+45 -2.672858e+42 -1.523994e+43 -6.356088e+44 -5.977523e+35 -5.977523e+35 -5.977523e+35 -1.753588e+36 -2.242123e+38 -2.242123e+38 -2.242123e+38 -4.535745e+38 8.092315e+42 8.092315e+42 3.640547e+43 3.640547e+43 -5.548422e+43 -3.983960e+42 -3.983960e+42 -3.983960e+42 -5.489788e+43 7.191537e+40 7.191537e+40 7.191537e+40 -3.024297e+38 -9.211924e+37 -8.303416e+37 3.668674e+41 3.668674e+41 4.559785e+41 -9.888413e+42 -9.888413e+42 -9.888413e+42 1.715588e+41 1.715588e+41 1.715588e+41 -5.284161e+43 -5.284161e+43 -3.145769e+42 1.409920e+41 9.664562e+42 -1.802108e+42 -1.802108e+42 -2.777470e+42 -6.300871e+41 8.718871e+40 8.718871e+40 8.718871e+40 -4.173351e+41 -4.173351e+41 -3.145769e+42 -1.470189e+42 3.985571e+40 8.537003e+42 -1.774203e+42 -1.774203e+42 2.302502e+41 -2.851361e+40 -6.309892e+40 -9.040469e+38 -9.449872e+36 -2.020658e+37 -2.020658e+37 -5.485373e+35 -3.951915e+36 3.971923e+37 3.971923e+37 3.971923e+37 -3.337957e+36 -3.337957e+36 2.928746e+32 -2.774789e+33 -2.774789e+33 -4.924506e+26 1.175365e+33 1.175365e+33 1.175365e+33 -1.040354e+32 -1.040354e+32 2.668374e+32 2.668374e+32 2.668374e+32 3.206462e+35 3.206462e+35 2.109127e+32 7.039706e+23 7.039706e+23 7.039706e+23 5.452841e+33 5.452841e+33 5.452841e+33 3.831263e+34 8.775238e+34 -2.687878e+28 -2.687878e+28 -2.687878e+28 7.377852e+33 7.377852e+33 7.377852e+33 -1.101137e+38 -1.101137e+38 -1.101137e+38 -8.383765e+34 -8.383765e+34 -1.042572e+35 -1.042572e+35 -1.042572e+35 5.880787e+32 5.880787e+32 9.813508e+37 9.813508e+37 9.813508e+37 -3.069384e+36 -3.069384e+36 -1.366050e+35 -1.366050e+35 -1.366050e+35 -8.241622e+27 -8.241622e+27 -8.241622e+27 1.704993e+32 1.704993e+32 1.704993e+32 -1.104134e+36 -1.104134e+36 3.561971e+26 3.561971e+26 3.561971e+26 1.143576e+26 1.143576e+26 -1.081986e+22 5.963209e+23 5.963209e+23 5.963209e+23 -3.590618e+24 2.734484e+28 2.734484e+28 2.734484e+28 6.469755e+27 4.328491e+23 4.328491e+23 4.328491e+23 -1.732853e+34 5.692971e+34 8.089035e+35 8.089035e+35 8.089035e+35 2.844915e+36 -3.364640e+27 -3.364640e+27 -3.364640e+27 -7.119335e+34 -7.119335e+34 -7.119335e+34 -2.311053e+38 -2.311053e+38 -2.153491e+34 -2.153491e+34 -2.153491e+34 -4.059604e+34 -2.172059e+34 -2.172059e+34 -7.926951e+33 -7.926951e+33 4.170160e+39 -1.244140e+35 -7.683499e+36 5.328489e+31 5.527825e+40 -1.537069e+35 -3.951915e+36 -1.315837e+35 -1.315837e+35 -6.498434e+26 -6.498434e+26 -6.498434e+26 3.585145e+30 3.585145e+30 -1.246502e+21 -1.246502e+21 -1.246502e+21 -1.876223e+36 -1.876223e+36 -1.876223e+36 -4.654975e+29 -4.654975e+29 1.283158e+33 1.283158e+33 1.188128e+35 1.188128e+35 1.188128e+35 -1.917444e+32 -1.917444e+32 -1.917444e+32 -8.396872e+32 -8.396872e+32 -8.396872e+32 -3.259070e+38 -3.554662e+29 -3.554662e+29 -2.614489e+32 -2.614489e+32 -2.896379e+34 -2.896379e+34 4.795317e+36 4.795317e+36 -4.137016e+33 3.230568e+36 3.230568e+36 3.230568e+36 3.858728e+36 2.183105e+40 7.479816e+36 -1.553046e+35 1.002155e+29 1.002155e+29 1.002155e+29 -5.442690e+31 -5.442690e+31 4.338175e+36 4.338175e+36 -3.059690e+39 -3.059690e+39 -2.421996e+37 -2.421996e+37 7.044289e+33 7.044289e+33 -2.174153e+33 1.570789e+36 1.570789e+36 -3.251119e+33 -3.251119e+33 -3.251119e+33 2.293874e+33 -2.962248e+33 1.497022e+34 6.564108e+31 6.564108e+31 6.564108e+31 6.647402e+32 6.647402e+32 6.647402e+32 -2.429201e+32 -6.373045e+29 -6.373045e+29 -6.373045e+29 6.856070e+29 6.856070e+29 6.856070e+29 -1.222957e+29 -1.222957e+29 -8.195383e+36 -1.319879e+35 -7.002457e+33 -7.002457e+33 -3.537184e+31 -3.537184e+31 -4.494196e+31 -1.241870e+32 -3.474005e+34 3.558780e+30 6.452926e+32 6.452926e+32 -1.911379e+34 1.471924e+31 -1.773418e+30 -1.773418e+30 -2.564275e+37 -4.937198e+35 -2.124955e+33 -2.124955e+33 -4.174014e+29 -1.664930e+31 -1.664930e+31 2.934011e+29 -1.320433e+32 -1.320433e+32 -1.320433e+32 -1.846225e+33 -8.068364e+33 -1.931682e+32 -1.931682e+32 -1.931682e+32 1.012291e+28 1.012291e+28 -1.027325e+34 8.370784e+31 5.490332e+34 5.490332e+34 2.159791e+34 -2.943792e+29 1.220493e+32 1.220493e+32 1.220493e+32 -1.093589e+32 -3.106389e+32 -3.825580e+28 -3.825580e+28 -3.825580e+28 1.230936e+28 4.078432e+28 4.078432e+28 9.783840e+28 9.783840e+28 -3.360588e+32 -1.316492e+33 1.024832e+34 8.382345e+30 -2.729054e+31 -2.729054e+31 -2.729054e+31 -5.452133e+31 -5.452133e+31 4.625837e+27 4.625837e+27 4.625837e+27 -5.373589e+33 2.361538e+29 -3.840888e+30 -3.840888e+30 -4.544377e+31 -4.544377e+31 1.183743e+32 -4.628261e+34 -1.309486e+29 -1.309486e+29 -1.309486e+29 3.435085e+27 3.435085e+27 -8.327573e+24 -8.327573e+24 -8.327573e+24 -5.589900e+29 -5.589900e+29 -5.916831e+29 6.990958e+28 6.990958e+28 8.065460e+22 8.065460e+22 -2.206942e+25 -2.206942e+25 9.094268e+28 -3.111923e+31 -3.111923e+31 -1.959680e+25 -1.959680e+25 -1.121371e+37 1.149948e+28 -1.359416e+27 -1.359416e+27 -1.498077e+30 -3.564442e+28 -3.564442e+28 -1.679929e+28 -1.679929e+28 -1.679929e+28 6.533004e+27 -1.162335e+27 -1.162335e+27 -1.162335e+27 2.490368e+27 -1.263935e+25 -9.150955e+33 -9.150955e+33 -9.150955e+33 -1.026620e+31 1.787510e+27 4.907349e+27 3.499488e+25 -2.119608e+27 -6.894980e+28 2.125121e+32 1.126689e+28 1.126689e+28 1.060710e+27 -3.303754e+22 -3.303754e+22 -3.303754e+22 8.894903e+26 -1.021352e+26 -4.303121e+30 -2.475411e+27 7.119126e+26 -1.171048e+25 -3.358270e+29 -3.009106e+23 -3.009106e+23 -5.049393e+25 1.647367e+29 5.511859e+22 2.476769e+21 -7.013743e+27 -7.013743e+27 1.290810e+27 -6.455602e+23 5.511859e+22 -6.756603e+24 -6.756603e+24 -6.756603e+24 -2.232821e+23 4.518158e+27 5.749593e+23 -2.044196e+25 2.468994e+28 2.468994e+28 2.468994e+28 3.319201e+24 3.319201e+24 -2.044196e+25 -7.287479e+25 -7.287479e+25 -5.547419e+24 1.752245e+25 1.752245e+25 7.362483e+24 1.768023e+23 7.741103e+24 7.741103e+24 7.741103e+24 2.566417e+25 3.866235e+23 3.866235e+23 1.229095e+24 -4.924506e+26 -4.924506e+26 -3.120854e+22 3.135023e+24 2.676408e+23 -6.486442e+21 -6.486442e+21 -2.245981e+23 1.034780e+23 -1.692912e+21 -1.692912e+21 -4.035830e+20 -3.120854e+22 -3.120854e+22 -9.312063e+21 -4.381560e+32 3.226801e+38 -3.587799e+38 -3.692300e+41 -3.692300e+41 1.896887e+36 2.433097e+36 2.433097e+36 -4.302269e+36 -2.210746e+36 -3.380117e+38 -3.380117e+38 1.109388e+38 -5.081591e+34 -1.632729e+40 -1.375822e+37 2.104200e+37 -2.036071e+31 6.887374e+26 1.198984e+25 -4.472953e+33 -2.983864e+39 8.499349e+38 -1.761432e+35 7.046435e+26 -4.515303e+28 -3.363154e+25 -5.673331e+23 -2.571542e+33 -4.311905e+23 2.849428e+33 2.151999e+24 5.466078e+23 5.466078e+23 5.466078e+23 -8.191760e+26 -7.843455e+32 -7.843455e+32 1.694191e+32 -1.497873e+35 4.048652e+34 2.550209e+37 1.383357e+30 4.587569e+33 -5.624240e+31 1.304052e+29 5.231908e+29 5.231908e+29 -2.306702e+30 -2.046129e+29 -7.024806e+30 -1.326279e+28 -1.326279e+28 -7.929805e+33 5.005534e+28 1.918112e+28 3.637503e+27 -3.475885e+28 -1.338575e+28 8.838484e+27 -3.285567e+28 -2.603169e+28 -2.603169e+28 2.357215e+29 1.469110e+28 3.537954e+28 2.450307e+25 -5.826069e+24 -5.826069e+24 -4.566738e+29 5.510457e+28 -2.517329e+27 -2.517329e+27 -1.349108e+26 -5.093066e+24 -5.093066e+24 -6.246362e+25 -6.246362e+25 -8.497817e+26 1.078844e+28 1.849697e+26 3.097844e+25 -2.284651e+22 -2.284651e+22 -2.284651e+22 -4.761369e+29 -7.188605e+30 -2.024151e+27 -1.473715e+22 3.898951e+26 -4.532293e+28 -4.971726e+26 -1.517160e+26 -3.826339e+27 -3.185248e+27 -3.185248e+27 9.889455e+25 -8.168836e+24 -8.168836e+24 3.815781e+26 3.815781e+26 2.195987e+26 -2.663316e+31 -7.066844e+27 -1.082666e+26 -6.320329e+23 -1.559066e+24 2.588415e+23 -1.995763e+24 -1.119830e+26 -1.854395e+25 -1.159548e+22 -2.102522e+40 -2.551607e+40 -9.616263e+40 2.376650e+39 -1.758895e+41 -5.042919e+41 -1.946953e+41 -2.441279e+40 -1.442259e+41 -7.962649e+42 2.788050e+41 -1.981802e+43 -4.324266e+43 -1.104870e+41 -7.001102e+42 -3.076324e+41 -5.421496e+41 -5.674595e+42 -5.481457e+42 1.321699e+44 7.198132e+41 -5.524601e+42 1.478736e+42 -8.330813e+41 -2.706860e+43 -2.642675e+43 -2.253146e+43 -8.753946e+43 2.859774e+42 -2.807940e+43 -1.940492e+43 -5.585962e+42 -1.588489e+43 -2.704986e+43 -8.271470e+43 6.006618e+43 1.198883e+46 -2.721370e+44 -5.724099e+41 -6.860530e+44 -4.982910e+44 -9.933090e+43 -3.899122e+45 1.673556e+44 -1.704363e+43 -6.055555e+43 9.478970e+44 -5.251723e+46 6.101610e+46 1.650696e+44 -6.168769e+43 2.897357e+43 -1.934742e+43 -1.282497e+44 -3.615427e+43 -7.093462e+43 3.167205e+44 -4.138943e+44 -5.285212e+45 -1.495223e+45 -6.582314e+44 -3.201552e+44 -8.767437e+44 -7.478764e+42 2.924914e+43 -7.766214e+43 -1.441357e+45 -3.517185e+45 -2.066857e+45 -1.088088e+44 -3.800432e+44 7.533805e+42 -4.224843e+44 2.231253e+43 -1.777812e+43 -5.230746e+43 -4.344790e+43 1.504416e+44 -6.300871e+41 4.268058e+39 -5.461051e+40 -5.461051e+40 -3.692300e+41 -2.179870e+39 1.109388e+38 -3.587799e+38 -3.587799e+38 -3.380117e+38 -2.223377e+38 -6.288087e+37 3.206462e+35 1.120442e+34 -5.065483e+38 -3.250887e+38 3.226801e+38 4.170160e+39 4.192379e+37 -6.280580e+37 -2.746213e+37 3.772117e+35 4.048652e+34 1.169155e+32 1.169155e+32 -1.200166e+36 8.982926e+33 1.283158e+33 1.896887e+36 1.290785e+36 4.587569e+33 -2.614489e+32 1.769720e+32 -4.381560e+32 -3.951436e+34 -2.896379e+34 -3.387517e+34 -9.937608e+33 -7.843455e+32 -5.624240e+31 -7.024806e+30 6.859205e+30 8.805229e+33 2.641610e+32 1.383357e+30 -4.654975e+29 -1.118333e+30 5.005534e+28 -2.335745e+29 1.304052e+29 1.304052e+29 -1.459024e+30 5.231908e+29 2.357215e+29 2.357215e+29 -3.554662e+29 -2.306702e+30 -2.306702e+30 1.469110e+28 -3.620100e+28 -2.603169e+28 -2.046129e+29 -2.046129e+29 1.918112e+28 1.918112e+28 -1.338575e+28 -4.566738e+29 1.078844e+28 -2.517329e+27 -2.024151e+27 2.450307e+25 2.450307e+25 -5.826069e+24 -1.647330e+24 -3.929332e+22 -1.254676e+21 -1.254676e+21 -1.085687e+24 -1.085687e+24 -1.085687e+24 -3.216301e+24 1.638600e+23 1.638600e+23 1.638600e+23 5.408851e+24 5.408851e+24 5.408851e+24 7.606134e+24 1.422517e+31 1.422517e+31 1.422517e+31 4.166396e+31 2.611027e+31 2.611027e+31 2.611027e+31 -7.632114e+31 -1.178185e+38 -1.178185e+38 -1.178185e+38 6.273004e+36 2.477247e+36 -2.594138e+35 -2.594138e+35 -2.594138e+35 -3.054782e+35 -3.508226e+32 -3.508226e+32 -3.508226e+32 -2.751698e+36 -2.751698e+36 -2.751698e+36 -1.334300e+36 -5.936435e+35 9.804285e+39 9.804285e+39 9.804285e+39 6.474088e+40 -6.899901e+37 -6.899901e+37 -6.899901e+37 -7.443378e+37 -7.443378e+37 4.396595e+41 4.396595e+41 4.396595e+41 7.507244e+41 4.472546e+42 -9.945616e+44 -9.945616e+44 -9.945616e+44 -4.337377e+45 -4.793051e+46 6.198303e+41 6.198303e+41 6.198303e+41 1.388055e+41 -3.254985e+44 -3.254985e+44 -3.254985e+44 -1.253123e+40 -1.253123e+40 8.512403e+40 8.512403e+40 2.681148e+42 2.681148e+42 2.681148e+42 7.992893e+44 -4.359223e+41 -4.359223e+41 -4.359223e+41 -1.571011e+43 -9.584281e+41 -9.584281e+41 -6.355459e+41 -6.355459e+41 -2.363625e+42 -2.363625e+42 -2.363625e+42 -1.976281e+43 -1.976281e+43 -6.514181e+42 -6.514181e+42 -6.514181e+42 1.720382e+42 1.720382e+42 -8.892554e+38 -3.578793e+39 -3.578793e+39 -3.578793e+39 -2.339290e+40 1.009784e+37 1.009784e+37 1.009784e+37 -1.573743e+37 -1.573743e+37 1.996384e+38 1.996384e+38 1.996384e+38 2.623788e+38 2.623788e+38 -1.112695e+37 -1.112695e+37 -1.112695e+37 -3.140426e+38 -3.140426e+38 -2.329507e+38 -2.329507e+38 -2.329507e+38 -1.704796e+36 -1.704796e+36 -3.431246e+28 -3.431246e+28 -3.431246e+28 -1.060459e+28 -3.191597e+31 -3.191597e+31 -3.191597e+31 -1.117830e+33 -1.000179e+35 -1.000179e+35 -1.000179e+35 -8.189074e+34 -8.189074e+34 3.175845e+30 3.175845e+30 3.175845e+30 2.069601e+30 2.069601e+30 2.069601e+30 -5.011734e+29 -5.011734e+29 1.366295e+28 1.366295e+28 1.366295e+28 6.564924e+28 6.564924e+28 7.383316e+32 7.383316e+32 7.383316e+32 2.092161e+32 -1.196392e+35 -1.196392e+35 -6.540851e+35 -6.540851e+35 -6.540851e+35 1.737684e+35 1.737684e+35 2.360529e+35 2.360529e+35 -3.454495e+36 -3.454495e+36 -3.454495e+36 -9.696335e+35 -2.130734e+40 -2.130734e+40 -2.130734e+40 -1.340359e+39 2.090742e+36 2.090742e+36 4.522633e+38 4.522633e+38 4.522633e+38 -1.006955e+39 -1.006955e+39 -1.006955e+39 1.852760e+38 1.852760e+38 2.429907e+44 2.429907e+44 2.429907e+44 -5.938150e+42 -5.938150e+42 2.236336e+43 2.236336e+43 4.102796e+42 1.395195e+43 1.395195e+43 1.395195e+43 8.911740e+41 8.911740e+41 2.859774e+42 -8.951001e+41 -8.951001e+41 -8.951001e+41 4.664573e+42 4.192017e+41 1.267245e+42 -2.509342e+43 -2.509342e+43 -2.509342e+43 -1.874620e+44 -1.874620e+44 -1.874620e+44 -4.600010e+43 -4.600010e+43 -4.600010e+43 3.908898e+38 3.908898e+38 3.908898e+38 -4.178868e+38 -4.178868e+38 2.075771e+37 2.075771e+37 2.075771e+37 -3.275688e+39 -3.275688e+39 9.669474e+35 9.669474e+35 -2.193078e+36 -2.193078e+36 -6.376195e+35 -6.376195e+35 2.125273e+37 -5.771831e+32 -5.771831e+32 -3.197506e+32 -3.197506e+32 -8.675118e+28 -8.675118e+28 -1.049581e+18 3.422452e+19 -1.049581e+18 -1.049581e+18 1.036119e+32 -8.564033e+32 -8.564033e+32 -3.278367e+39 -3.278367e+39 -3.278367e+39 4.409376e+39 4.409376e+39 4.409376e+39 4.277458e+36 3.234106e+39 3.234106e+39 -1.364205e+41 -1.364205e+41 2.432287e+40 -4.729918e+39 -3.506936e+43 -3.201552e+44 -1.075791e+43 -1.075791e+43