<?xml version="1.0"?>
 <VTKFile type="UnstructuredGrid" version="1.0" byte_order="LittleEndian" header_type="UInt64">
  <UnstructuredGrid>
    <FieldData>
     <DataArray type="Float64" Name="TimeValue" NumberOfTuples="1" format="ascii">
5e-08
     </DataArray>
    </FieldData>
   <Piece NumberOfPoints="3632" NumberOfCells="3379">
    <PointData>
     <DataArray type="Float64" Name="pointP" format="ascii">
4.346719e+42 4.346719e+42 -5.261838e+43 -1.011868e+46 -1.085368e+46 -1.408539e+44 1.028413e+42 5.826699e+43 -6.515492e+44 -4.087829e+44 -3.092032e+44 -7.081966e+43 3.481952e+42 3.768068e+43 -1.481773e+44 7.569952e+42 1.905937e+42 -3.191766e+43 -1.711142e+44 -3.026926e+44 2.849888e+43 -5.456719e+43 -1.639376e+43 -2.644088e+43 1.689307e+43 -4.263923e+43 -9.337814e+44 -4.188403e+44 -1.971004e+43 2.960575e+43 -2.683459e+44 -4.177270e+44 -3.127886e+42 -1.456498e+42 -1.182797e+43 -4.481983e+43 -4.569317e+43 -7.208275e+42 -1.062539e+44 -4.776350e+43 4.512703e+43 2.814406e+44 -7.618686e+43 -4.938140e+43 -9.767078e+42 -1.362915e+43 -8.836673e+42 3.664810e+42 7.893718e+40 -5.661691e+42 -3.424692e+42 -6.289776e+42 -2.928006e+42 8.677708e+40 -5.332613e+41 -1.442863e+41 5.129266e+43 -5.202317e+41 -7.191860e+40 -7.405966e+40 -3.297868e+41 -3.767419e+40 7.656018e+39 -1.060661e+41 -2.376141e+41 -2.430234e+40 -2.774346e+39 -1.190216e+40 -4.899453e+40 -2.115511e+40 1.221184e+41 1.235039e+39 6.484558e+39 -1.816859e+38 2.924327e+35 -4.550786e+38 -1.158833e+39 -3.435644e+39 -2.574508e+39 -8.724167e+39 2.609151e+37 -1.162533e+37 -9.188516e+36 -2.558945e+36 -1.361209e+36 -1.863119e+35 -1.097262e+35 3.789304e+33 9.157423e+33 1.808167e+34 -6.892109e+33 -1.559142e+34 -2.696825e+34 -2.333485e+34 -2.845817e+34 -1.897142e+35 2.559274e+36 2.734623e+37 2.777020e+39 -1.990857e+38 -1.130063e+39 -9.129566e+38 3.970098e+37 -5.700527e+39 -3.512002e+40 -7.376120e+37 -7.818550e+39 -3.317800e+40 -5.098661e+40 -6.198841e+40 -2.310140e+40 -1.898745e+40 -1.891219e+39 7.259684e+39 -1.679323e+41 -1.232572e+41 -5.885687e+40 -3.645613e+41 3.336563e+39 -3.038403e+41 -7.124421e+41 -4.475113e+42 -2.295560e+42 -1.024928e+43 2.496981e+40 -9.433032e+41 -9.891133e+42 -4.119888e+43 -5.175787e+43 -1.989867e+43 -1.094081e+41 2.438762e+41 -2.794971e+43 -2.154104e+43 -8.823336e+41 -2.462973e+42 -4.357584e+43 -2.472318e+42 -1.632728e+41 -1.212695e+43 1.667550e+41 1.301367e+41 -6.391277e+43 -6.702785e+43 1.003958e+43 -9.107637e+43 2.877675e+43 -3.192649e+44 -1.544676e+44 -1.968984e+44 1.667134e+43 -3.265239e+42 -6.297289e+43 7.980832e+42 4.352972e+42 -9.871794e+43 -2.170407e+42 2.069032e+42 1.020225e+43 -1.021930e+44 1.371648e+43 -6.272792e+44 -6.541657e+44 -1.122621e+43 -6.321069e+43 8.067309e+42 2.208741e+42 -1.353638e+44 -3.862728e+43 -2.604564e+42 2.463384e+43 -1.475624e+45 -8.188662e+44 -2.870487e+44 8.354973e+44 4.279158e+44 -1.298577e+42 1.039240e+43 -7.732595e+44 -7.744538e+44 5.347774e+44 4.179246e+12 4.179246e+12 4.179246e+12 1.909473e+12 1.909473e+12 1.909473e+12 -1.144475e+11 2.966214e+12 -3.251653e+12 2.246253e+15 -2.777762e+18 -2.777762e+18 -2.777762e+18 1.085910e+18 -4.240813e+20 -4.240813e+20 -4.240813e+20 1.177786e+19 1.446181e+22 2.475395e+34 2.475395e+34 2.475395e+34 2.014031e+33 1.093492e+35 1.093492e+35 1.093492e+35 -1.199899e+35 4.815987e+30 4.815987e+30 4.815987e+30 6.719553e+30 6.699104e+29 4.114718e+29 2.181018e+35 2.181018e+35 2.181018e+35 -1.627069e+36 -1.627069e+36 -2.580231e+37 -2.580231e+37 -2.580231e+37 -1.220492e+37 1.096772e+38 1.096772e+38 1.096772e+38 -1.192421e+38 -1.192421e+38 6.594764e+41 6.594764e+41 6.594764e+41 9.436317e+37 9.436317e+37 9.436317e+37 6.370359e+36 -1.977748e+31 -1.977748e+31 -1.977748e+31 1.480210e+41 1.480210e+41 1.480210e+41 -7.142371e+41 -1.743633e+42 -1.743633e+42 -1.747144e+40 -1.747144e+40 -5.877759e+39 -5.877759e+39 1.349681e+39 -7.863432e+41 -7.863432e+41 -7.863432e+41 -3.055736e+43 -3.055736e+43 1.877587e+44 1.877587e+44 1.877587e+44 -6.157479e+42 -6.157479e+42 -1.902337e+23 -1.902337e+23 -1.902337e+23 -2.025752e+24 -2.025752e+24 -1.720264e+35 -1.720264e+35 -1.544770e+37 -1.544770e+37 -1.544770e+37 -1.030746e+36 -5.395457e+34 -5.395457e+34 -5.395457e+34 -3.766282e+34 -1.673956e+34 4.768260e+36 4.768260e+36 4.768260e+36 9.111650e+39 9.111650e+39 3.797204e+40 -4.481983e+43 -5.144517e+41 -5.144517e+41 -2.870487e+44 -4.228542e+44 -4.228542e+44 -4.530393e+34 2.496981e+40 -1.875224e+41 5.857827e+14 6.796690e+16 6.796690e+16 6.796690e+16 4.746204e+16 -1.602267e+22 1.165887e+21 1.165887e+21 1.165887e+21 6.789184e+21 6.789184e+21 -2.118982e+29 -2.118982e+29 -2.118982e+29 -1.999803e+28 3.809239e+29 3.809239e+29 3.809239e+29 -7.336330e+28 1.910877e+32 -2.288018e+32 1.118804e+32 -6.340331e+34 -6.340331e+34 1.172166e+28 1.172166e+28 1.172166e+28 6.100980e+28 -1.117781e+34 -1.117781e+34 -1.117781e+34 -2.198878e+33 -2.198878e+33 -9.770238e+32 -3.490170e+33 -3.490170e+33 -3.490170e+33 4.481743e+34 9.936921e+32 9.936921e+32 9.936921e+32 1.823795e+33 6.818276e+32 -2.816019e+33 -2.816019e+33 -2.816019e+33 -1.611583e+32 1.741897e+36 -1.122384e+37 -6.869945e+32 -6.869945e+32 -6.869945e+32 -1.582144e+32 -6.862338e+36 -6.862338e+36 -6.862338e+36 4.109143e+36 -7.057804e+36 -7.057804e+36 -7.057804e+36 1.983218e+36 1.983218e+36 -2.636125e+40 -2.636125e+40 -2.636125e+40 -9.418082e+39 -7.504673e+38 -7.504673e+38 -7.504673e+38 -1.975803e+38 1.069005e+40 1.069005e+40 1.069005e+40 -4.435661e+40 5.312878e+40 5.312878e+40 1.947695e+40 7.316942e+34 7.316942e+34 6.034921e+34 6.034921e+34 6.034921e+34 5.308511e+34 5.308511e+34 5.308511e+34 3.393333e+33 -3.646489e+44 -3.646489e+44 -3.646489e+44 2.926785e+44 2.926785e+44 2.633489e+41 2.633489e+41 2.633489e+41 -1.373055e+42 -1.373055e+42 8.096493e+34 -6.610728e+41 -6.610728e+41 -2.885986e+41 -8.637614e+41 -8.637614e+41 -8.637614e+41 1.706238e+42 -2.571105e+40 -2.571105e+40 -1.840836e+42 -1.840836e+42 2.886565e+41 2.886565e+41 -5.700582e+43 1.315848e+40 1.315848e+40 4.191869e+42 4.191869e+42 -1.734340e+42 -1.734340e+42 -5.476139e+40 -5.476139e+40 -5.476139e+40 -4.853482e+40 -3.093186e+33 1.598504e+31 -5.850739e+38 -5.850739e+38 -5.850739e+38 -2.275255e+42 -4.857103e+37 -4.857103e+37 -4.857103e+37 3.106786e+36 3.106786e+36 1.284836e+42 1.284836e+42 1.284836e+42 -2.833761e+42 -2.833761e+42 -1.043133e+38 -4.505521e+37 -2.502289e+42 -2.502289e+42 -2.502289e+42 -5.815185e+41 -1.868119e+40 -1.868119e+40 -1.868119e+40 -1.478460e+40 -1.478460e+40 -2.140668e+41 -1.345580e+40 -4.883098e+31 -4.883098e+31 -4.883098e+31 1.442949e+31 1.442949e+31 4.518293e+29 -6.529558e+29 -6.529558e+29 1.059589e+37 1.059589e+37 1.059589e+37 9.986241e+36 9.986241e+36 3.090943e+33 3.090943e+33 3.090943e+33 2.350960e+34 2.350960e+34 1.159136e+37 1.159136e+37 3.927110e+35 3.927110e+35 -9.273111e+30 -9.273111e+30 -3.859762e+30 -5.763349e+36 -5.763349e+36 -1.266074e+37 -1.266074e+37 4.244656e+34 4.244656e+34 4.244656e+34 -5.332959e+33 2.865003e+28 2.865003e+28 2.865003e+28 4.424678e+29 4.424678e+29 -2.199408e+31 8.882914e+31 -4.970971e+29 -3.728187e+13 -3.728187e+13 -3.728187e+13 -1.795272e+15 -1.795272e+15 1.551440e+15 1.551440e+15 1.194291e+15 -9.080613e+19 -9.080613e+19 -3.718061e+20 -2.051315e+21 -2.751128e+22 -2.751128e+22 -2.751128e+22 3.880774e+22 3.880774e+22 3.880774e+22 -6.456865e+23 -6.456865e+23 -6.456865e+23 -7.183057e+27 1.171459e+27 -1.012758e+21 5.232250e+25 5.232250e+25 5.232250e+25 3.269463e+25 3.685092e+26 3.685092e+26 3.685092e+26 1.630507e+28 1.630507e+28 1.630507e+28 1.020322e+29 7.986626e+28 7.986626e+28 7.986626e+28 -1.104146e+30 -1.104146e+30 -1.104146e+30 -5.141190e+29 -5.141190e+29 -5.141190e+29 -3.106513e+32 -3.106513e+32 -3.879364e+31 1.350561e+36 -9.071414e+34 -9.071414e+34 1.852047e+34 1.852047e+34 1.852047e+34 -1.025872e+37 -1.025872e+37 3.644363e+27 3.644363e+27 1.363008e+39 -2.712103e+36 -1.122384e+37 -3.293471e+37 -3.293471e+37 -3.293471e+37 5.149060e+36 -1.867995e+34 -1.867995e+34 -1.867995e+34 -3.320941e+30 1.780684e+31 1.094316e+32 -8.604651e+32 -8.604651e+32 -8.604651e+32 2.366651e+38 2.366651e+38 2.366651e+38 1.746598e+38 1.821846e+36 -2.652263e+33 -2.652263e+33 -2.652263e+33 -5.475496e+40 -5.475496e+40 -5.475496e+40 -6.630000e+40 2.954388e+35 2.954388e+35 2.954388e+35 5.777945e+35 2.112617e+40 2.112617e+40 2.112617e+40 -3.210895e+44 -7.105321e+32 -7.105321e+32 -8.709714e+32 -8.709714e+32 -8.709714e+32 -1.911444e+33 -4.924571e+32 -1.429400e+43 -1.429400e+43 -1.535836e+41 5.949890e+41 -3.650136e+42 -4.628071e+40 -4.628071e+40 4.652615e+38 4.652615e+38 4.652615e+38 9.540421e+38 6.093535e+41 6.093535e+41 6.093535e+41 1.046027e+42 -1.060661e+41 2.273222e+38 2.273222e+38 -1.606857e+40 -1.606857e+40 -1.606857e+40 -1.864433e+39 -6.718839e+42 -1.108129e+38 -1.108129e+38 -5.967038e+37 -7.677351e+39 -7.677351e+39 -7.677351e+39 2.749834e+42 2.749834e+42 9.894991e+42 9.894991e+42 9.894991e+42 -3.103822e+43 -1.055964e+42 -1.055964e+42 -1.055964e+42 -2.732451e+42 -2.732451e+42 5.381264e+42 -3.653004e+41 -3.653004e+41 -1.989031e+34 -2.084801e+42 -2.084801e+42 -1.884030e+42 1.736898e+40 2.973868e+42 1.921099e+42 2.973868e+42 2.973868e+42 -3.781638e+39 -3.781638e+39 -3.781638e+39 -4.322929e+37 -4.322929e+37 -5.797003e+37 -5.797003e+37 -4.316743e+39 -4.316743e+39 -1.030958e+37 -1.030958e+37 -1.030958e+37 1.860967e+37 1.860967e+37 1.533641e+29 1.533641e+29 1.533641e+29 -1.285345e+29 -1.285345e+29 -6.366931e+36 -6.366931e+36 -6.366931e+36 -2.717698e+36 -2.717698e+36 -2.893427e+34 -2.893427e+34 -2.893427e+34 2.590529e+30 -2.888004e+36 -2.888004e+36 -2.888004e+36 -1.875381e+35 -1.875381e+35 -6.661304e+34 -6.661304e+34 -6.661304e+34 1.271794e+35 1.271794e+35 -2.903268e+31 -2.903268e+31 -2.903268e+31 -3.206726e+32 -3.206726e+32 -2.702134e+32 -2.702134e+32 -2.702134e+32 2.087450e+28 2.087450e+28 2.087450e+28 4.815472e+30 4.815472e+30 9.302999e+29 8.402075e+28 -1.173665e+28 -1.173665e+28 -1.173665e+28 -2.306575e+28 3.700651e+22 3.700651e+22 1.066925e+22 -4.548287e+22 -4.548287e+22 8.262758e+20 8.262758e+20 -7.348709e+21 -1.637421e+20 -3.283617e+21 -9.643943e+16 -3.283617e+21 -3.283617e+21 -3.251653e+12 -3.251653e+12 3.184034e+12 8.664659e+26 -2.235510e+26 8.138305e+34 8.138305e+34 8.138305e+34 -6.704715e+34 4.638204e+33 -9.723146e+32 -9.723146e+32 -9.723146e+32 -5.166309e+32 1.066369e+35 -9.709260e+35 1.841035e+41 1.841035e+41 1.841035e+41 -3.362060e+40 -1.453412e+39 -8.273364e+39 -2.239496e+40 -1.473134e+33 -1.473134e+33 2.574732e+32 1.742938e+43 -4.394214e+41 -4.394214e+41 -2.072887e+41 -2.092334e+41 3.540208e+41 -6.999597e+40 -1.274268e+41 -2.146346e+39 -2.146346e+39 -2.146346e+39 3.507937e+39 5.815257e+42 5.815257e+42 5.815257e+42 -4.259865e+43 3.279653e+32 2.877675e+43 -1.519469e+43 -1.519469e+43 1.615180e+37 1.615180e+37 1.615180e+37 1.768058e+40 -7.467150e+43 -7.467150e+43 9.726737e+38 9.726737e+38 9.726737e+38 -1.866042e+40 2.347323e+44 2.347323e+44 -8.079231e+38 -1.930606e+39 -1.930606e+39 -1.930606e+39 -3.186109e+39 4.493247e+42 1.825474e+44 1.825474e+44 3.473613e+42 -2.170407e+42 6.395215e+33 6.395215e+33 -1.601989e+42 -1.601989e+42 -1.601989e+42 1.178987e+43 -4.461072e+42 2.880578e+41 2.880578e+41 -4.485553e+39 8.685667e+41 8.685667e+41 4.200242e+41 -4.680129e+42 -4.680129e+42 -7.929328e+39 -2.924838e+40 -3.038403e+41 -3.026659e+40 -3.026659e+40 -9.710666e+43 -9.710666e+43 5.187519e+40 4.337173e+43 4.337173e+43 3.534798e+39 3.534798e+39 3.534798e+39 -2.500938e+40 1.737901e+42 1.737901e+42 -9.474563e+41 -9.474563e+41 -2.537450e+41 -9.344936e+44 1.605120e+36 -6.273656e+36 1.003958e+43 7.664091e+40 7.664091e+40 3.789304e+33 -1.249646e+34 -1.249646e+34 -7.659096e+43 -7.659096e+43 7.605996e+41 7.605996e+41 -9.164519e+39 -8.128052e+33 -2.333982e+42 -2.333982e+42 -2.874279e+41 1.617280e+42 1.617280e+42 4.512703e+43 5.611558e+41 -1.414918e+39 -1.414918e+39 -1.414918e+39 1.942872e+42 1.942872e+42 1.942872e+42 -3.419096e+41 2.647013e+39 2.647013e+39 5.734244e+39 -6.041866e+41 -6.041866e+41 1.776460e+39 3.487939e+42 6.226950e+37 6.226950e+37 6.226950e+37 -7.513979e+42 -7.513979e+42 -7.618686e+43 -4.474220e+45 -4.474220e+45 -2.574508e+39 -3.730753e+39 -1.162533e+37 -2.074680e+37 -6.303956e+43 1.525538e+43 1.525538e+43 -3.280073e+41 -3.280073e+41 -3.280073e+41 -3.583610e+41 -1.303053e+43 -7.848388e+43 -3.544573e+37 -3.544573e+37 1.066128e+40 5.808538e+40 5.808538e+40 -2.622316e+44 -2.622316e+44 -1.073739e+45 -2.430234e+40 1.319380e+38 1.319380e+38 -2.774078e+37 6.595870e+42 6.595870e+42 6.251955e+42 6.251955e+42 2.178322e+36 2.178322e+36 2.178322e+36 7.933918e+40 7.933918e+40 7.933918e+40 3.949703e+32 3.949703e+32 -1.176260e+41 -1.580286e+44 1.598100e+42 1.739333e+42 -1.223915e+41 -1.725713e+42 -3.170388e+42 -1.037870e+39 -9.143174e+35 1.897618e+42 1.897618e+42 1.001812e+41 9.771314e+39 3.615600e+42 -1.475487e+41 1.452175e+37 1.452175e+37 4.346719e+42 2.037740e+42 4.743697e+44 4.743697e+44 4.743697e+44 -1.477319e+46 -9.747805e+42 -6.693115e+41 -5.096050e+43 -1.712471e+42 -2.146411e+39 -2.146411e+39 -3.435927e+38 -3.331150e+41 1.161205e+42 -2.781083e+41 -5.190327e+40 5.496007e+38 5.496007e+38 5.496007e+38 8.296902e+37 -9.258934e+38 -9.258934e+38 -9.258934e+38 -1.693392e+42 -1.760413e+43 1.474938e+43 2.330343e+41 -7.124246e+40 -7.186370e+38 6.536070e+40 2.567071e+42 3.963050e+39 -9.778605e+39 -9.778605e+39 -3.647696e+40 9.199861e+38 -1.176346e+42 2.681043e+43 5.268692e+40 -1.765813e+40 -1.765813e+40 -5.206166e+42 -5.206166e+42 -3.530960e+40 -3.530960e+40 1.491291e+39 7.138987e+40 -2.986372e+33 1.016876e+42 -5.455057e+42 -3.394648e+42 -5.656756e+36 -2.178467e+33 -2.693330e+32 -2.693330e+32 -2.110012e+43 -2.110012e+43 -1.756150e+41 -1.756150e+41 -5.404045e+39 -3.985969e+37 2.228174e+40 2.228174e+40 -1.377869e+40 -7.423582e+37 -7.423582e+37 -1.716241e+37 -1.716241e+37 3.419694e+38 3.419694e+38 -1.490457e+41 -3.469797e+40 -3.469797e+40 -1.581521e+41 -1.581521e+41 -1.581521e+41 -3.696229e+41 1.009116e+41 1.009116e+41 -7.445445e+42 -7.445445e+42 -2.856985e+43 -6.386913e+42 1.524924e+42 -3.737585e+41 1.219991e+42 9.743393e+39 9.743393e+39 2.463040e+33 2.463040e+33 9.495496e+31 1.188205e+42 1.188205e+42 -2.274170e+42 -2.274170e+42 -8.387811e+41 -8.387811e+41 -1.477711e+37 4.726405e+42 5.692101e+36 5.692101e+36 3.081060e+37 -1.182848e+33 -1.129823e+30 1.310598e+42 1.449731e+39 -1.894659e+40 -3.522748e+42 -6.604294e+42 -6.222112e+36 -6.222112e+36 -6.222112e+36 -1.909625e+32 -1.909625e+32 -1.909625e+32 5.346100e+34 -4.830836e+36 -4.830836e+36 -4.830836e+36 -2.581271e+38 -3.009254e+41 1.433028e+40 4.051695e+40 8.865863e+38 8.865863e+38 -2.996605e+33 -2.996605e+33 -2.996605e+33 -4.833348e+40 7.026561e+41 -4.435695e+42 1.575307e+42 1.575307e+42 5.656596e+41 -2.764951e+32 -1.035467e+40 -1.035467e+40 -1.437636e+39 6.544143e+39 6.544143e+39 -2.129252e+40 5.887560e+43 -1.657185e+38 -1.963320e+37 1.866000e+40 -7.116129e+37 -6.559830e+36 -1.417138e+42 -3.264721e+33 -3.264721e+33 -3.264721e+33 2.633195e+39 2.633195e+39 1.495565e+43 3.367030e+40 3.367030e+40 -3.185520e+41 -1.245743e+41 -2.313472e+41 -4.712150e+43 -8.488981e+40 -8.488981e+40 -8.488981e+40 -1.555243e+40 9.752500e+40 9.752500e+40 4.647318e+40 -2.324577e+39 -2.324577e+39 -1.620005e+36 -1.620005e+36 -1.620005e+36 1.035730e+37 5.586926e+38 4.812519e+39 4.812519e+39 4.812519e+39 -8.211266e+40 -1.036804e+40 1.254016e+40 1.254016e+40 7.642791e+38 7.642791e+38 -5.494283e+40 -1.561466e+40 -1.561466e+40 -4.312654e+32 -1.610364e+33 2.993678e+39 2.993678e+39 2.424943e+41 7.640007e+39 -5.796481e+42 1.921099e+42 5.103723e+41 -3.092062e+38 -1.541005e+38 -1.369764e+41 4.904969e+35 4.904969e+35 1.027601e+35 1.027601e+35 -1.956828e+37 7.229539e+35 7.216401e+36 -6.187703e+37 -2.831402e+39 3.247309e+40 2.374280e+39 -1.102367e+39 -1.102367e+39 5.821478e+42 5.821478e+42 5.821478e+42 -4.332350e+40 -1.195679e+39 -1.195679e+39 -6.078630e+39 -2.160079e+35 -6.418688e+34 3.143004e+38 2.570637e+41 -3.905455e+42 -3.905455e+42 -3.905455e+42 -7.414953e+40 -1.910526e+37 -5.261838e+43 -1.582893e+40 -6.842552e+39 -6.842552e+39 -3.533474e+41 -3.533474e+41 -3.533474e+41 5.708246e+39 -5.057175e+40 -5.057175e+40 -7.886819e+40 -7.886819e+40 -1.128026e+40 3.583036e+38 1.247718e+36 -2.034906e+41 -7.138578e+38 -5.777905e+37 -1.687997e+41 -9.332610e+38 -9.285238e+31 -9.382668e+36 -9.382668e+36 -9.382668e+36 -1.816791e+35 -6.243279e+40 1.062591e+38 5.388569e+35 8.941108e+40 8.762816e+41 1.144160e+32 4.036920e+31 3.096790e+37 3.096790e+37 -2.356555e+37 -2.459888e+37 -2.459888e+37 1.457860e+35 5.519241e+38 5.519241e+38 -8.915084e+36 7.536702e+38 7.536702e+38 7.982047e+40 -2.560278e+40 -1.034163e+40 -1.034163e+40 -4.139748e+35 -1.016556e+37 -1.016556e+37 8.441050e+38 1.046649e+40 -6.886572e+39 7.392584e+39 -7.808240e+37 -7.808240e+37 -3.215505e+32 1.438201e+38 1.956694e+40 -9.234497e+35 -1.708021e+34 -5.999422e+38 -5.999422e+38 -8.486695e+36 -8.486695e+36 -8.486695e+36 -5.490905e+34 -1.749157e+34 5.995444e+36 -4.606128e+37 -4.606128e+37 1.272558e+31 -1.037793e+30 -1.037793e+30 4.684880e+35 -6.005928e+35 -2.630293e+35 -4.444989e+39 1.872787e+40 1.872787e+40 1.872787e+40 -6.526826e+39 -6.778558e+41 1.692853e+38 -2.784834e+37 -3.725957e+37 -1.263968e+39 -1.263968e+39 -1.263968e+39 -2.161694e+34 -2.161694e+34 -2.161694e+34 1.620652e+35 1.291008e+33 4.074446e+41 9.379903e+36 -1.418388e+37 4.127292e+34 4.127292e+34 1.196605e+39 -8.036202e+37 -1.982942e+38 -1.982942e+38 -2.674252e+35 6.737968e+38 6.737968e+38 1.249136e+39 -5.783407e+36 -5.783407e+36 -1.646597e+37 9.633258e+35 9.633258e+35 -1.356523e+32 -3.811392e+38 -3.811392e+38 4.304230e+40 4.304230e+40 8.766004e+38 8.766004e+38 8.766004e+38 7.952081e+37 -6.051237e+37 -6.051237e+37 -5.756448e+38 -5.756448e+38 -5.756448e+38 1.439031e+39 -6.367063e+42 -7.405808e+33 8.189278e+39 8.189278e+39 4.020124e+39 1.028369e+39 1.028369e+39 1.028369e+39 -7.557343e+35 -7.557343e+35 -8.379734e+34 9.780014e+35 9.780014e+35 -3.675529e+37 6.964585e+40 -6.068395e+40 -6.068395e+40 1.155446e+39 1.394087e+39 5.649786e+35 5.649786e+35 5.649786e+35 5.478696e+39 -1.745563e+36 -1.745563e+36 4.091458e+36 4.091458e+36 -2.963129e+39 -2.963129e+39 -2.914317e+37 -2.914317e+37 -6.093067e+40 -6.093067e+40 -1.451956e+40 -2.506972e+35 -6.312644e+34 -1.880662e+37 -4.151578e+37 -4.151578e+37 -4.151578e+37 -4.718163e+32 2.801110e+35 -1.198538e+40 2.300866e+35 -9.985771e+37 1.129176e+37 1.172304e+36 1.172304e+36 -4.278826e+40 -2.345105e+37 -2.345105e+37 -1.071655e+35 -5.790295e+34 -3.917275e+36 -3.917275e+36 5.945517e+37 1.951308e+36 1.951308e+36 -4.961950e+31 1.675908e+29 -9.503231e+39 3.067464e+32 4.226131e+38 -1.873771e+38 -1.873771e+38 8.511017e+37 -7.176154e+33 -4.953932e+35 5.564981e+39 1.659069e+40 -1.104480e+39 -1.104480e+39 2.200429e+38 2.200429e+38 4.299920e+30 1.371477e+39 -2.591914e+39 -2.591914e+39 2.605542e+37 -8.610692e+35 -3.071197e+35 -4.131904e+34 -4.131904e+34 -4.131904e+34 -1.433580e+34 -1.433580e+34 -4.443277e+36 3.938716e+38 -6.973665e+38 -1.304401e+37 -1.304401e+37 1.774572e+32 1.774572e+32 1.522513e+32 4.593533e+32 4.593533e+32 -1.665100e+38 -1.665100e+38 -1.665100e+38 1.218890e+36 1.218890e+36 -8.134947e+35 -8.134947e+35 -2.147419e+35 1.251956e+36 -3.848843e+34 -3.848843e+34 -3.848843e+34 -4.450105e+37 1.070409e+36 -3.265934e+35 -3.265934e+35 1.255530e+36 -3.011776e+39 -2.712103e+36 -7.651032e+37 -6.483063e+36 -3.839688e+36 -1.193048e+34 1.394087e+39 -1.163521e+37 -1.163521e+37 -1.271163e+36 -1.271163e+36 3.649298e+38 2.294500e+37 -4.207188e+38 4.527748e+40 1.654230e+37 1.654230e+37 3.502741e+37 -1.830997e+38 -3.253240e+37 -1.481443e+39 3.239423e+32 1.984039e+37 2.032248e+39 -1.437880e+37 -1.437880e+37 -2.390967e+37 -2.390967e+37 4.556733e+33 2.432609e+28 2.432609e+28 2.432609e+28 8.421438e+34 -3.284884e+37 1.054207e+32 3.303651e+36 5.203090e+36 4.366503e+38 1.300854e+38 -2.551265e+36 3.174895e+36 5.177310e+37 5.177310e+37 5.177310e+37 -3.702110e+36 2.426298e+33 -9.917214e+36 -1.822983e+36 -1.822983e+36 4.890968e+36 3.690772e+28 -4.512873e+30 -4.512873e+30 2.001814e+38 -9.552953e+34 -3.608411e+35 -4.139779e+37 -4.106174e+30 -4.106174e+30 -1.251092e+31 -4.479202e+37 -8.124998e+36 -8.124998e+36 -3.781451e+36 -5.767667e+30 -5.767667e+30 -5.767667e+30 -6.743768e+31 -1.338679e+32 -8.484125e+31 1.122915e+32 -1.332625e+32 -1.332625e+32 -2.024479e+33 4.105993e+34 -4.816259e+34 -4.816259e+34 -6.745564e+35 -1.120350e+35 -1.120350e+35 -1.120350e+35 4.585777e+33 4.230862e+36 -5.304009e+35 1.068211e+37 -4.354869e+35 5.236522e+30 -7.793142e+34 -3.060034e+34 2.633384e+36 -8.590549e+33 -3.562577e+33 1.741897e+36 -6.382914e+31 2.325854e+36 2.325854e+36 2.325854e+36 1.599995e+36 5.955489e+35 2.542985e+34 -8.112557e+35 1.599995e+36 6.064875e+36 -4.357396e+36 1.352496e+35 -9.411832e+31 7.335643e+31 4.616186e+30 8.006176e+36 8.006176e+36 8.006176e+36 1.406380e+34 3.583480e+37 3.583480e+37 -4.827051e+33 -4.827051e+33 7.735424e+30 -1.561546e+37 -1.687239e+35 -5.063562e+29 -5.063562e+29 -5.063562e+29 1.249150e+32 6.229932e+33 6.229932e+33 -6.989085e+29 1.106773e+33 2.428262e+33 -8.511826e+36 -1.992918e+34 -1.992918e+34 -1.992918e+34 -7.899918e+34 -7.899918e+34 -7.899918e+34 2.868472e+36 5.649182e+31 -7.070881e+35 -7.070881e+35 -9.453589e+36 -9.453589e+36 -9.453589e+36 4.279708e+38 -2.871627e+32 -2.871627e+32 -2.871627e+32 -1.824312e+34 -1.824312e+34 -1.824312e+34 -8.830105e+33 4.300979e+28 -3.800168e+30 -3.367696e+31 -3.367696e+31 -3.367696e+31 1.097921e+30 8.757507e+28 8.757507e+28 -1.126136e+34 -6.401087e+32 1.453171e+38 -2.098012e+30 -1.299402e+31 6.007468e+34 -9.050523e+33 -7.715612e+31 -8.602053e+33 4.078379e+34 4.078379e+34 -1.510665e+34 -8.711636e+33 -1.031364e+31 7.332272e+32 1.129674e+31 -1.790677e+28 -1.688042e+31 -7.427296e+31 -7.427296e+31 -2.655168e+32 -1.273708e+33 -5.325793e+31 3.244430e+34 4.825627e+30 -4.783733e+33 6.978211e+33 6.978211e+33 1.435161e+36 1.435161e+36 -4.598621e+32 -4.598621e+32 -4.598621e+32 2.776901e+30 2.776901e+30 -1.721542e+31 -5.356388e+33 -2.500053e+32 -2.500053e+32 -3.884741e+32 1.558651e+31 -3.117143e+30 -4.439693e+30 -4.439693e+30 -1.600899e+31 -7.382823e+31 -3.218240e+34 -3.218240e+34 -5.074263e+31 -5.616732e+31 6.007468e+34 6.007468e+34 4.162287e+29 5.702903e+32 5.702903e+32 5.702903e+32 8.460918e+28 1.089469e+34 1.435045e+33 -3.949431e+27 -3.949431e+27 -3.949431e+27 -8.679546e+27 2.744145e+27 7.204837e+31 -4.488939e+27 -3.349876e+29 3.817790e+29 3.817790e+29 3.817790e+29 -2.753737e+29 -2.955526e+32 -1.122748e+32 -1.122748e+32 -1.122748e+32 -2.881498e+31 -1.039271e+32 -9.097539e+29 -9.097539e+29 2.948139e+29 -9.460919e+32 -9.460919e+32 -9.460919e+32 1.144524e+34 1.144524e+34 -7.929041e+32 -6.703833e+32 -6.703833e+32 -7.780392e+32 -6.810802e+30 -6.810802e+30 -1.018213e+28 -1.937272e+32 -1.937272e+32 -1.937272e+32 5.204095e+32 5.204095e+32 5.204095e+32 7.003699e+24 7.003699e+24 9.715034e+24 -1.838353e+30 4.103886e+32 4.103886e+32 1.096878e+24 1.619238e+28 1.619238e+28 -1.445261e+26 -1.445261e+26 -4.442764e+31 5.274073e+31 -3.112482e+32 -3.112482e+32 1.065980e+34 1.065980e+34 2.562206e+26 2.562206e+26 -5.269967e+23 -9.554153e+29 -9.554153e+29 -8.951910e+29 -8.951910e+29 3.482911e+29 -4.884245e+28 -9.121248e+31 1.105008e+30 1.105008e+30 -2.540643e+27 -3.020927e+26 -1.443729e+26 2.253307e+29 2.253307e+29 -4.833394e+27 -4.970971e+29 -4.970971e+29 4.030668e+30 4.030668e+30 -5.254419e+28 -8.862880e+28 -8.862880e+28 -8.862880e+28 4.757515e+27 4.757515e+27 2.502857e+31 -4.115749e+27 -4.115749e+27 -7.595256e+26 -7.595256e+26 -3.817180e+28 -5.623637e+24 -9.837629e+26 -1.560354e+28 3.743921e+29 7.886138e+28 7.886138e+28 -1.089080e+30 -1.089080e+30 1.439270e+22 1.439270e+22 -1.034402e+31 -1.657190e+24 -1.657190e+24 -1.347451e+23 -9.067034e+25 -9.067034e+25 -7.227369e+27 -7.227369e+27 -5.670726e+26 -2.393851e+27 -2.393851e+27 -3.965666e+25 -3.965666e+25 1.363578e+24 1.363578e+24 -1.983217e+23 -9.914271e+23 -9.914271e+23 1.806991e+29 7.421758e+27 -2.739826e+26 -6.444929e+26 -1.736894e+26 -3.784994e+28 2.320517e+28 -2.526943e+27 -2.526943e+27 8.385342e+28 -4.164544e+26 -4.164544e+26 -1.387838e+27 -2.638646e+28 -1.891367e+25 3.223989e+28 3.223989e+28 -1.763241e+24 -1.763241e+24 -3.775646e+25 -3.494258e+26 7.281191e+26 7.281191e+26 4.830647e+25 4.830647e+25 -8.994267e+27 -1.360405e+25 -1.360405e+25 -1.360405e+25 -2.010037e+25 -2.010037e+25 1.464540e+26 -1.920576e+25 1.360425e+23 1.360425e+23 -7.850552e+23 -7.850552e+23 -1.283216e+24 -8.215498e+23 -9.029875e+26 3.291923e+24 -1.046763e+22 2.284286e+21 2.007515e+23 1.109414e+20 -4.137858e+22 -1.846752e+21 1.891934e+18 -1.101398e+21 5.317964e+19 -5.257515e+19 -4.324594e+20 -9.643943e+16 -9.407313e+15 -9.407313e+15 -1.011939e+19 -8.996754e+16 -6.464420e+21 -1.580235e+17 -3.482533e+16 -1.441847e+19 -1.441847e+19 -9.512333e+15 -9.512333e+15 5.588499e+14 5.588499e+14 -2.335750e+14 -1.240144e+12 -1.240144e+12 -1.240144e+12 1.001992e+15 1.001992e+15 -2.367548e+21 -2.367548e+21 -2.367548e+21 1.738134e+24 1.738134e+24 -3.024066e+28 -1.073730e+28 1.588497e+16 -3.024066e+28 -3.024066e+28 -1.667065e+30 2.839786e+26 1.063274e+24 -7.246417e+22 6.041128e+21 -1.241440e+21 -7.448680e+20 -6.679045e+19 7.388723e+18 7.388723e+18 1.928303e+14 1.340748e+31 1.588497e+16 -6.344445e+25 -5.313953e+23 4.905416e+13 -1.553430e+26 -1.553430e+26 -3.051298e+24 -9.767236e+24 -3.051298e+24 -2.151058e+14 -2.301008e+23 -2.775661e+13 7.171650e+15 8.469690e+14 8.469690e+14 1.146002e+12 4.346719e+42 4.346719e+42 -5.261838e+43 -1.011868e+46 -1.085368e+46 -1.408539e+44 1.028413e+42 5.826699e+43 -6.515492e+44 -4.087829e+44 -3.092032e+44 -7.081966e+43 3.481952e+42 3.768068e+43 -1.481773e+44 7.569952e+42 1.905937e+42 -3.191766e+43 -1.711142e+44 -3.026926e+44 2.849888e+43 -5.456719e+43 -1.639376e+43 -2.644088e+43 1.689307e+43 -4.263923e+43 -9.337814e+44 -4.188403e+44 -1.971004e+43 2.960575e+43 -2.683459e+44 -4.177270e+44 -3.127886e+42 -1.456498e+42 -1.182797e+43 -4.481983e+43 -4.569317e+43 -7.208275e+42 -1.062539e+44 -4.776350e+43 4.512703e+43 2.814406e+44 -7.618686e+43 -4.938140e+43 -9.767078e+42 -1.362915e+43 -8.836673e+42 3.664810e+42 7.893718e+40 -5.661691e+42 -3.424692e+42 -6.289776e+42 -2.928006e+42 8.677708e+40 -5.332613e+41 -1.442863e+41 5.129266e+43 -5.202317e+41 -7.191860e+40 -7.405966e+40 -3.297868e+41 -3.767419e+40 7.656018e+39 -1.060661e+41 -2.376141e+41 -2.430234e+40 -2.774346e+39 -1.190216e+40 -4.899453e+40 -2.115511e+40 1.221184e+41 1.235039e+39 6.484558e+39 -1.816859e+38 2.924327e+35 -4.550786e+38 -1.158833e+39 -3.435644e+39 -2.574508e+39 -8.724167e+39 2.609151e+37 -1.162533e+37 -9.188516e+36 -2.558945e+36 -1.361209e+36 -1.863119e+35 -1.097262e+35 3.789304e+33 9.157423e+33 1.808167e+34 -6.892109e+33 -1.559142e+34 -2.696825e+34 -2.333485e+34 -2.845817e+34 -1.897142e+35 2.559274e+36 2.734623e+37 2.777020e+39 -1.990857e+38 -1.130063e+39 -9.129566e+38 3.970098e+37 -5.700527e+39 -3.512002e+40 -7.376120e+37 -7.818550e+39 -3.317800e+40 -5.098661e+40 -6.198841e+40 -2.310140e+40 -1.898745e+40 -1.891219e+39 7.259684e+39 -1.679323e+41 -1.232572e+41 -5.885687e+40 -3.645613e+41 3.336563e+39 -3.038403e+41 -7.124421e+41 -4.475113e+42 -2.295560e+42 -1.024928e+43 2.496981e+40 -9.433032e+41 -9.891133e+42 -4.119888e+43 -5.175787e+43 -1.989867e+43 -1.094081e+41 2.438762e+41 -2.794971e+43 -2.154104e+43 -8.823336e+41 -2.462973e+42 -4.357584e+43 -2.472318e+42 -1.632728e+41 -1.212695e+43 1.667550e+41 1.301367e+41 -6.391277e+43 -6.702785e+43 1.003958e+43 -9.107637e+43 2.877675e+43 -3.192649e+44 -1.544676e+44 -1.968984e+44 1.667134e+43 -3.265239e+42 -6.297289e+43 7.980832e+42 4.352972e+42 -9.871794e+43 -2.170407e+42 2.069032e+42 1.020225e+43 -1.021930e+44 1.371648e+43 -6.272792e+44 -6.541657e+44 -1.122621e+43 -6.321069e+43 8.067309e+42 2.208741e+42 -1.353638e+44 -3.862728e+43 -2.604564e+42 2.463384e+43 -1.475624e+45 -8.188662e+44 -2.870487e+44 8.354973e+44 4.279158e+44 -1.298577e+42 1.039240e+43 -7.732595e+44 -7.744538e+44 5.347774e+44 4.179246e+12 4.179246e+12 4.179246e+12 1.909473e+12 1.909473e+12 1.909473e+12 -1.144475e+11 2.966214e+12 -3.251653e+12 2.246253e+15 -2.777762e+18 -2.777762e+18 -2.777762e+18 1.085910e+18 -4.240813e+20 -4.240813e+20 -4.240813e+20 1.177786e+19 1.446181e+22 2.475395e+34 2.475395e+34 2.475395e+34 2.014031e+33 1.093492e+35 1.093492e+35 1.093492e+35 -1.199899e+35 4.815987e+30 4.815987e+30 4.815987e+30 6.719553e+30 6.699104e+29 4.114718e+29 2.181018e+35 2.181018e+35 2.181018e+35 -1.627069e+36 -1.627069e+36 -2.580231e+37 -2.580231e+37 -2.580231e+37 -1.220492e+37 1.096772e+38 1.096772e+38 1.096772e+38 -1.192421e+38 -1.192421e+38 6.594764e+41 6.594764e+41 6.594764e+41 9.436317e+37 9.436317e+37 9.436317e+37 6.370359e+36 -1.977748e+31 -1.977748e+31 -1.977748e+31 1.480210e+41 1.480210e+41 1.480210e+41 -7.142371e+41 -1.743633e+42 -1.743633e+42 -1.747144e+40 -1.747144e+40 -5.877759e+39 -5.877759e+39 1.349681e+39 -7.863432e+41 -7.863432e+41 -7.863432e+41 -3.055736e+43 -3.055736e+43 1.877587e+44 1.877587e+44 1.877587e+44 -6.157479e+42 -6.157479e+42 -1.902337e+23 -1.902337e+23 -1.902337e+23 -2.025752e+24 -2.025752e+24 -1.720264e+35 -1.720264e+35 -1.544770e+37 -1.544770e+37 -1.544770e+37 -1.030746e+36 -5.395457e+34 -5.395457e+34 -5.395457e+34 -3.766282e+34 -1.673956e+34 4.768260e+36 4.768260e+36 4.768260e+36 9.111650e+39 9.111650e+39 3.797204e+40 -4.481983e+43 -5.144517e+41 -5.144517e+41 -2.870487e+44 -4.228542e+44 -4.228542e+44 -4.530393e+34 2.496981e+40 -1.875224e+41 5.857827e+14 6.796690e+16 6.796690e+16 6.796690e+16 4.746204e+16 -1.602267e+22 1.165887e+21 1.165887e+21 1.165887e+21 6.789184e+21 6.789184e+21 -2.118982e+29 -2.118982e+29 -2.118982e+29 -1.999803e+28 3.809239e+29 3.809239e+29 3.809239e+29 -7.336330e+28 1.910877e+32 -2.288018e+32 1.118804e+32 -6.340331e+34 -6.340331e+34 1.172166e+28 1.172166e+28 1.172166e+28 6.100980e+28 -1.117781e+34 -1.117781e+34 -1.117781e+34 -2.198878e+33 -2.198878e+33 -9.770238e+32 -3.490170e+33 -3.490170e+33 -3.490170e+33 4.481743e+34 9.936921e+32 9.936921e+32 9.936921e+32 1.823795e+33 6.818276e+32 -2.816019e+33 -2.816019e+33 -2.816019e+33 -1.611583e+32 1.741897e+36 -1.122384e+37 -6.869945e+32 -6.869945e+32 -6.869945e+32 -1.582144e+32 -6.862338e+36 -6.862338e+36 -6.862338e+36 4.109143e+36 -7.057804e+36 -7.057804e+36 -7.057804e+36 1.983218e+36 1.983218e+36 -2.636125e+40 -2.636125e+40 -2.636125e+40 -9.418082e+39 -7.504673e+38 -7.504673e+38 -7.504673e+38 -