<?xml version="1.0"?>
 <VTKFile type="UnstructuredGrid" version="1.0" byte_order="LittleEndian" header_type="UInt64">
  <UnstructuredGrid>
    <FieldData>
     <DataArray type="Float64" Name="TimeValue" NumberOfTuples="1" format="ascii">
0.00016
     </DataArray>
    </FieldData>
   <Piece NumberOfPoints="3468" NumberOfCells="3392">
    <PointData>
     <DataArray type="Float64" Name="pointP" format="ascii">
9.324625e+04 9.334670e+04 9.354541e+04 9.392074e+04 9.398362e+04 9.431609e+04 9.431609e+04 9.448744e+04 9.473864e+04 9.503526e+04 9.503526e+04 9.528436e+04 9.536106e+04 9.568660e+04 9.568660e+04 9.584238e+04 9.599986e+04 9.620148e+04 9.645592e+04 9.652583e+04 9.659767e+04 9.689370e+04 9.702260e+04 9.702260e+04 9.726652e+04 9.737289e+04 9.741942e+04 9.754106e+04 9.779202e+04 9.785252e+04 9.796258e+04 9.807248e+04 9.816651e+04 9.824959e+04 9.835047e+04 9.845559e+04 9.861331e+04 9.874401e+04 9.882807e+04 9.891341e+04 9.899657e+04 9.903093e+04 9.915763e+04 9.927965e+04 9.934495e+04 9.937243e+04 9.949100e+04 9.956297e+04 9.959820e+04 9.966903e+04 9.973670e+04 9.981923e+04 9.994010e+04 9.994010e+04 1.000595e+05 1.000595e+05 1.001326e+05 1.002280e+05 1.002507e+05 1.002913e+05 1.003822e+05 1.004268e+05 1.004268e+05 1.004695e+05 1.005304e+05 1.005530e+05 1.006218e+05 1.006712e+05 1.006712e+05 1.007326e+05 1.007425e+05 1.007724e+05 1.008117e+05 1.008590e+05 1.008590e+05 1.008895e+05 1.009252e+05 1.009450e+05 1.009647e+05 1.010005e+05 1.010184e+05 1.010184e+05 1.010406e+05 1.010652e+05 1.010869e+05 1.010869e+05 1.011011e+05 1.011264e+05 1.011264e+05 1.011499e+05 1.011624e+05 1.011624e+05 1.011717e+05 1.011801e+05 1.011935e+05 1.011966e+05 1.012113e+05 1.012180e+05 1.012180e+05 1.012277e+05 1.012355e+05 1.012355e+05 1.012409e+05 1.012480e+05 1.012516e+05 1.012603e+05 1.012603e+05 1.012673e+05 1.012733e+05 1.012733e+05 1.012815e+05 1.012831e+05 1.012898e+05 1.012936e+05 1.012936e+05 1.013015e+05 1.013046e+05 1.013061e+05 1.013119e+05 1.013141e+05 1.013190e+05 1.013250e+05 1.013250e+05 1.013250e+05 1.013250e+05 1.013250e+05 1.012900e+05 1.012766e+05 1.013018e+05 1.014389e+05 1.021679e+05 1.021679e+05 1.027491e+05 1.027491e+05 1.006438e+05 1.006438e+05 1.006438e+05 1.007135e+05 1.007135e+05 1.013117e+05 1.013117e+05 9.995432e+04 9.995432e+04 9.995432e+04 1.003546e+05 1.003546e+05 1.010562e+05 1.010562e+05 1.010562e+05 1.013029e+05 1.017465e+05 1.017465e+05 1.015995e+05 1.012819e+05 1.012819e+05 1.012819e+05 1.012864e+05 1.012864e+05 1.012781e+05 1.012929e+05 1.012929e+05 1.012861e+05 1.013131e+05 1.012984e+05 1.012961e+05 1.013145e+05 1.013145e+05 1.013181e+05 1.013181e+05 1.013202e+05 1.013220e+05 1.000936e+05 1.000936e+05 1.000936e+05 9.991992e+04 9.991992e+04 9.973359e+04 9.768244e+04 9.768244e+04 9.768244e+04 9.766666e+04 9.770918e+04 1.004716e+05 9.933730e+04 9.933730e+04 9.941895e+04 9.780971e+04 9.780971e+04 9.785598e+04 9.934176e+04 9.934176e+04 9.934176e+04 9.305137e+04 9.305137e+04 9.305137e+04 9.386152e+04 9.386152e+04 9.386152e+04 1.006292e+05 1.006292e+05 1.006292e+05 9.633096e+04 9.633096e+04 9.633096e+04 9.869579e+04 9.869579e+04 9.869579e+04 9.873573e+04 9.587607e+04 9.587607e+04 9.764961e+04 9.764961e+04 9.764961e+04 9.329517e+04 9.353278e+04 9.752883e+04 9.752883e+04 1.001137e+05 1.001137e+05 1.001137e+05 1.003020e+05 1.003020e+05 9.999694e+04 1.002423e+05 1.002423e+05 1.016618e+05 1.016618e+05 1.016618e+05 1.008423e+05 1.008423e+05 9.696175e+04 9.696175e+04 9.696175e+04 9.750022e+04 9.517694e+04 9.636698e+04 9.851004e+04 9.851004e+04 9.802484e+04 9.802484e+04 9.802484e+04 9.574671e+04 9.517222e+04 9.517222e+04 9.674273e+04 9.674273e+04 9.674273e+04 1.004106e+05 1.004106e+05 1.004106e+05 9.758624e+04 9.758624e+04 9.758624e+04 1.017177e+05 1.012474e+05 9.336404e+04 9.336404e+04 9.336404e+04 9.385207e+04 9.932836e+04 9.932836e+04 9.399336e+04 9.826384e+04 9.826384e+04 9.826384e+04 9.358090e+04 9.358090e+04 9.835718e+04 9.835718e+04 9.716629e+04 9.716629e+04 9.716629e+04 9.531256e+04 9.531256e+04 9.531256e+04 9.541953e+04 9.541953e+04 9.541953e+04 9.377911e+04 9.377911e+04 9.851192e+04 9.851192e+04 9.433624e+04 9.433624e+04 9.433624e+04 9.844912e+04 9.897866e+04 9.897866e+04 9.897866e+04 9.397667e+04 9.849890e+04 9.849890e+04 9.688337e+04 9.688337e+04 9.688337e+04 9.945653e+04 9.945653e+04 9.945653e+04 9.549963e+04 9.588561e+04 9.588561e+04 9.588561e+04 9.476725e+04 9.476725e+04 9.476725e+04 9.357959e+04 9.365090e+04 9.653297e+04 9.653297e+04 9.653297e+04 9.677321e+04 9.677321e+04 9.939666e+04 9.939666e+04 9.939666e+04 9.414553e+04 9.414553e+04 9.414553e+04 9.419112e+04 9.424449e+04 9.412724e+04 9.412724e+04 9.891275e+04 9.891275e+04 9.891275e+04 9.474981e+04 9.474981e+04 9.646417e+04 9.646417e+04 9.323483e+04 9.453970e+04 9.453970e+04 9.569954e+04 9.569954e+04 9.569954e+04 9.793306e+04 9.453381e+04 9.532953e+04 9.532953e+04 9.837135e+04 9.837135e+04 9.800209e+04 9.800209e+04 9.800209e+04 9.689643e+04 9.689643e+04 1.001835e+05 1.001835e+05 1.001835e+05 9.957045e+04 9.957045e+04 9.957045e+04 9.754763e+04 9.399909e+04 9.919351e+04 9.919351e+04 9.919351e+04 9.652552e+04 9.652552e+04 9.652552e+04 9.592462e+04 9.589302e+04 9.399909e+04 9.690521e+04 9.975201e+04 9.975201e+04 9.975201e+04 9.728218e+04 9.728218e+04 9.999008e+04 9.999008e+04 9.999008e+04 9.750053e+04 9.750053e+04 9.750053e+04 9.718879e+04 1.003014e+05 1.003014e+05 1.003014e+05 9.750916e+04 9.642548e+04 9.642548e+04 9.701309e+04 9.891837e+04 9.891837e+04 9.718004e+04 9.785914e+04 9.785914e+04 9.802969e+04 9.802969e+04 9.774157e+04 9.684943e+04 9.950668e+04 9.950668e+04 9.950668e+04 9.812849e+04 1.002844e+05 1.002844e+05 9.529497e+04 9.822386e+04 9.822386e+04 9.823301e+04 1.008087e+05 1.008087e+05 1.008087e+05 1.001112e+05 1.001112e+05 9.846664e+04 9.846664e+04 9.866922e+04 9.866922e+04 9.732868e+04 9.992843e+04 9.992843e+04 9.992843e+04 9.925791e+04 9.925791e+04 9.925791e+04 9.636698e+04 9.995866e+04 9.995866e+04 9.923656e+04 9.918568e+04 9.572037e+04 9.715256e+04 9.774637e+04 9.774637e+04 1.004191e+05 1.004191e+05 1.004191e+05 9.871517e+04 1.009785e+05 1.009785e+05 1.009785e+05 9.913625e+04 9.913625e+04 9.880700e+04 9.764361e+04 1.007987e+05 1.007987e+05 1.007987e+05 1.005086e+05 1.005086e+05 1.005086e+05 1.006608e+05 1.006608e+05 1.003313e+05 1.003313e+05 1.002149e+05 1.002149e+05 1.001097e+05 9.817494e+04 9.817494e+04 9.880533e+04 9.880533e+04 9.955283e+04 9.955283e+04 9.809444e+04 1.009619e+05 1.010205e+05 1.010205e+05 1.010205e+05 9.943627e+04 1.005289e+05 1.005289e+05 9.971857e+04 9.971857e+04 1.001733e+05 9.835267e+04 9.947853e+04 1.001040e+05 1.001040e+05 1.002558e+05 1.002558e+05 9.919819e+04 1.010651e+05 1.010651e+05 1.010651e+05 1.011485e+05 1.011485e+05 1.011485e+05 9.975338e+04 9.975338e+04 9.975338e+04 9.949898e+04 9.949898e+04 1.012878e+05 1.012878e+05 1.012878e+05 1.010473e+05 1.010473e+05 1.010473e+05 1.005081e+05 1.011042e+05 1.011042e+05 1.011042e+05 1.006136e+05 1.006136e+05 9.981630e+04 1.010588e+05 1.010588e+05 1.012266e+05 1.012266e+05 1.012266e+05 9.994742e+04 9.994742e+04 1.004081e+05 1.004081e+05 1.007994e+05 1.007994e+05 1.007994e+05 1.012090e+05 1.012090e+05 1.012090e+05 1.007640e+05 1.012142e+05 1.012142e+05 1.012142e+05 1.012943e+05 1.012943e+05 1.012943e+05 1.009223e+05 1.009223e+05 1.009223e+05 1.008122e+05 1.009472e+05 1.009472e+05 1.008400e+05 1.004006e+05 1.004006e+05 1.012927e+05 1.009613e+05 1.009613e+05 1.009613e+05 1.012282e+05 1.012282e+05 1.012282e+05 1.009551e+05 1.009551e+05 1.009551e+05 1.011232e+05 1.011232e+05 1.011232e+05 1.010395e+05 1.010395e+05 1.010824e+05 1.010824e+05 1.012053e+05 1.012053e+05 1.011813e+05 1.011813e+05 1.011813e+05 1.009193e+05 1.009193e+05 1.008393e+05 1.008393e+05 1.012083e+05 1.012147e+05 1.012147e+05 1.010348e+05 1.010348e+05 1.010803e+05 1.012337e+05 1.012337e+05 1.012337e+05 1.011215e+05 1.011215e+05 1.011932e+05 1.011932e+05 1.010917e+05 1.014318e+05 1.014318e+05 1.014318e+05 1.022010e+05 1.022010e+05 1.022010e+05 1.012441e+05 1.012441e+05 1.012597e+05 1.012597e+05 1.012597e+05 1.012248e+05 1.012756e+05 1.012756e+05 1.012487e+05 1.017314e+05 9.576464e+04 1.007590e+05 9.559562e+04 9.850179e+04 1.022606e+05 1.013051e+05 1.013051e+05 1.013051e+05 1.011672e+05 1.011672e+05 1.009832e+05 1.009995e+05 1.013100e+05 1.011185e+05 1.020191e+05 1.005326e+05 1.012716e+05 1.012716e+05 1.012443e+05 1.012443e+05 1.012443e+05 1.012447e+05 1.011282e+05 1.009752e+05 1.009752e+05 1.010167e+05 1.010167e+05 1.010167e+05 1.010198e+05 1.001529e+05 1.000215e+05 9.491979e+04 9.518202e+04 9.518202e+04 9.325226e+04 9.748472e+04 9.748472e+04 1.006686e+05 1.007881e+05 1.012677e+05 1.012677e+05 1.012677e+05 1.012876e+05 1.012876e+05 9.365567e+04 9.365567e+04 9.630871e+04 9.485463e+04 9.384438e+04 9.386803e+04 9.432921e+04 9.432921e+04 9.432921e+04 9.688412e+04 9.493630e+04 9.537111e+04 9.820745e+04 9.709231e+04 9.643471e+04 9.643471e+04 9.643471e+04 9.624101e+04 9.624101e+04 9.367476e+04 9.401944e+04 9.545720e+04 9.348613e+04 9.680798e+04 9.479011e+04 9.454116e+04 9.454116e+04 9.415526e+04 9.592465e+04 9.592465e+04 9.568945e+04 9.452848e+04 9.593676e+04 9.722467e+04 9.729228e+04 9.756198e+04 9.564288e+04 9.564288e+04 9.564288e+04 9.509057e+04 9.509057e+04 9.660166e+04 9.665680e+04 9.524189e+04 9.499052e+04 9.605257e+04 9.423261e+04 9.469126e+04 9.911537e+04 9.670711e+04 9.511859e+04 9.718626e+04 9.571253e+04 9.614284e+04 9.809569e+04 9.803659e+04 9.859599e+04 9.590882e+04 9.440230e+04 9.990366e+04 9.990366e+04 9.503311e+04 9.866534e+04 9.866534e+04 9.699184e+04 9.699184e+04 9.858283e+04 1.000501e+05 9.970700e+04 9.970700e+04 9.970700e+04 9.604013e+04 9.618044e+04 9.618044e+04 9.995966e+04 1.002710e+05 9.710613e+04 9.959780e+04 9.956763e+04 9.956763e+04 9.873064e+04 9.795198e+04 9.819282e+04 9.819282e+04 9.889398e+04 9.883786e+04 9.900087e+04 9.960032e+04 9.959617e+04 1.004511e+05 1.004511e+05 9.792525e+04 9.689696e+04 9.875113e+04 9.875113e+04 9.875113e+04 9.925837e+04 9.963325e+04 9.726394e+04 9.864891e+04 1.001435e+05 1.001435e+05 1.001435e+05 9.831040e+04 9.831040e+04 9.981070e+04 9.919642e+04 1.005147e+05 9.902312e+04 1.003823e+05 1.006148e+05 1.006148e+05 1.001993e+05 1.000679e+05 9.930131e+04 9.977756e+04 9.980805e+04 9.948529e+04 1.005376e+05 1.005376e+05 1.005376e+05 1.002526e+05 9.884737e+04 9.934394e+04 1.005749e+05 9.840985e+04 9.905883e+04 9.905883e+04 1.007112e+05 1.006811e+05 1.011337e+05 1.011337e+05 9.917674e+04 1.009462e+05 1.009462e+05 1.009120e+05 1.006111e+05 1.006111e+05 1.008966e+05 1.008966e+05 9.967129e+04 1.007411e+05 1.009585e+05 1.009887e+05 1.009887e+05 9.947826e+04 1.003682e+05 1.003682e+05 1.006650e+05 1.006650e+05 1.006650e+05 9.991606e+04 9.991606e+04 1.002094e+05 1.008516e+05 1.008516e+05 1.011153e+05 1.010795e+05 1.009478e+05 1.003642e+05 1.007617e+05 1.004160e+05 1.004912e+05 1.006346e+05 1.006071e+05 1.010062e+05 1.011788e+05 1.011788e+05 1.011788e+05 1.009856e+05 1.010381e+05 1.010843e+05 1.010843e+05 1.010843e+05 1.008553e+05 1.007278e+05 1.007278e+05 1.007278e+05 1.011606e+05 1.001989e+05 1.011862e+05 1.011862e+05 1.010208e+05 1.004121e+05 9.990024e+04 1.003266e+05 1.007377e+05 1.012838e+05 1.012838e+05 1.008271e+05 1.005331e+05 1.011002e+05 1.002792e+05 1.009035e+05 1.009035e+05 1.009035e+05 1.011502e+05 1.011197e+05 1.011197e+05 1.011197e+05 1.012076e+05 1.012076e+05 1.011651e+05 1.007984e+05 1.012509e+05 1.012485e+05 1.010574e+05 1.011016e+05 1.011016e+05 1.012382e+05 1.012382e+05 1.004673e+05 1.011344e+05 1.012195e+05 1.012195e+05 1.011727e+05 1.011727e+05 9.987138e+04 1.010695e+05 1.009239e+05 1.012631e+05 1.012631e+05 1.012550e+05 1.012550e+05 1.012550e+05 1.012652e+05 1.012422e+05 1.012422e+05 1.010292e+05 1.008374e+05 1.008891e+05 1.011456e+05 1.011547e+05 1.011547e+05 1.012608e+05 1.011017e+05 1.011964e+05 1.011445e+05 1.011690e+05 1.011690e+05 1.011181e+05 1.010851e+05 1.012126e+05 1.012126e+05 1.012470e+05 1.012470e+05 1.011801e+05 1.011801e+05 1.013108e+05 1.012800e+05 1.013061e+05 1.012936e+05 1.008005e+05 1.008005e+05 1.012198e+05 1.012709e+05 1.012709e+05 1.012736e+05 1.012736e+05 1.012972e+05 1.012972e+05 1.012525e+05 1.009008e+05 1.008738e+05 1.012074e+05 1.011481e+05 1.012720e+05 1.011974e+05 1.011912e+05 1.012766e+05 1.012766e+05 1.006413e+05 1.012323e+05 1.012323e+05 1.012323e+05 1.012349e+05 1.013043e+05 1.012986e+05 1.011386e+05 1.009142e+05 1.011808e+05 1.011761e+05 1.012617e+05 1.013014e+05 1.010676e+05 1.013060e+05 1.012812e+05 1.011917e+05 1.012676e+05 1.012184e+05 1.012881e+05 1.012679e+05 1.012597e+05 1.012561e+05 1.012628e+05 1.011449e+05 1.011875e+05 1.012367e+05 1.012257e+05 1.012257e+05 1.012595e+05 1.012595e+05 1.012923e+05 1.012923e+05 1.012425e+05 1.012808e+05 1.012718e+05 1.013250e+05 1.013250e+05 1.013250e+05 1.013250e+05 1.013126e+05 1.012926e+05 1.012781e+05 1.013016e+05 1.014395e+05 1.021766e+05 1.037083e+05 1.012991e+05 1.012991e+05 1.012991e+05 1.012645e+05 1.014340e+05 1.011522e+05 1.011869e+05 1.012637e+05 1.012637e+05 1.012637e+05 1.012621e+05 1.010864e+05 1.010864e+05 1.010864e+05 1.010949e+05 1.023157e+05 1.023157e+05 1.023157e+05 1.022788e+05 1.022788e+05 1.012895e+05 1.012895e+05 1.012895e+05 1.012980e+05 1.012980e+05 1.019211e+05 1.012842e+05 1.012842e+05 1.012928e+05 1.012751e+05 1.012751e+05 1.012767e+05 1.010851e+05 1.013040e+05 1.013040e+05 1.013040e+05 1.013150e+05 1.013150e+05 1.013150e+05 1.013172e+05 1.012936e+05 1.012968e+05 1.012968e+05 1.012968e+05 1.022124e+05 1.025836e+05 1.022124e+05 1.022124e+05 1.012989e+05 1.013022e+05 1.035037e+05 1.039392e+05 1.035037e+05 1.035037e+05 1.012245e+05 1.012175e+05 1.012175e+05 1.012175e+05 1.012258e+05 1.013291e+05 1.013291e+05 1.013126e+05 1.048560e+05 1.012950e+05 1.012950e+05 1.013068e+05 1.012026e+05 1.012026e+05 1.030481e+05 9.779792e+04 9.779792e+04 9.779792e+04 9.785252e+04 1.001987e+05 1.001987e+05 1.001987e+05 1.002455e+05 1.002455e+05 1.010941e+05 1.010941e+05 1.010941e+05 1.010694e+05 1.010694e+05 9.954128e+04 9.954128e+04 9.954128e+04 9.942943e+04 1.010243e+05 1.010243e+05 1.010243e+05 1.010349e+05 1.002548e+05 1.002548e+05 1.002548e+05 1.002780e+05 1.002946e+05 1.002996e+05 9.866580e+04 9.866580e+04 9.866580e+04 9.861989e+04 9.862293e+04 9.956297e+04 9.956297e+04 9.984555e+04 9.984555e+04 9.984555e+04 9.838308e+04 9.838308e+04 9.838308e+04 9.771718e+04 9.771718e+04 9.771718e+04 1.009682e+05 1.009682e+05 1.008636e+05 1.008636e+05 1.011559e+05 1.011559e+05 1.011559e+05 1.011503e+05 9.574284e+04 9.574284e+04 9.574284e+04 1.003879e+05 1.003879e+05 1.003879e+05 9.792164e+04 9.792164e+04 9.792164e+04 9.977124e+04 9.977124e+04 9.977124e+04 9.708772e+04 9.708772e+04 9.708772e+04 9.677780e+04 9.677780e+04 9.556909e+04 9.556909e+04 9.464092e+04 9.464092e+04 9.464092e+04 9.747105e+04 9.747105e+04 9.747105e+04 9.904080e+04 9.904080e+04 9.904080e+04 9.849802e+04 9.743262e+04 1.010039e+05 1.010039e+05 1.010039e+05 1.005742e+05 1.005742e+05 1.005742e+05 9.996675e+04 9.996675e+04 1.018384e+05 1.018384e+05 1.016703e+05 1.005682e+05 1.005682e+05 1.005682e+05 1.004994e+05 1.004994e+05 1.004994e+05 9.830127e+04 9.858375e+04 9.968930e+04 9.968930e+04 9.968930e+04 1.009280e+05 1.009280e+05 1.009280e+05 9.980403e+04 9.695899e+04 9.750313e+04 9.750313e+04 9.750313e+04 9.471853e+04 9.471853e+04 9.471853e+04 9.815604e+04 9.815604e+04 9.853514e+04 9.853514e+04 9.953001e+04 9.991686e+04 9.991686e+04 1.010062e+05 1.010062e+05 1.010062e+05 1.009302e+05 1.010811e+05 1.010811e+05 1.012757e+05 1.012757e+05 1.012757e+05 9.399048e+04 9.625399e+04 9.625399e+04 9.625399e+04 9.481132e+04 9.481132e+04 9.456563e+04 9.899657e+04 9.899657e+04 9.503706e+04 9.503706e+04 9.800190e+04 9.800190e+04 9.800190e+04 9.442488e+04 9.533240e+04 9.533240e+04 9.533240e+04 9.686493e+04 9.686493e+04 9.686493e+04 9.559551e+04 9.559551e+04 9.742223e+04 9.742223e+04 9.742223e+04 9.756415e+04 9.596100e+04 9.596100e+04 9.596100e+04 9.694430e+04 9.694430e+04 9.694430e+04 9.412796e+04 9.412796e+04 9.412796e+04 9.446655e+04 9.446655e+04 9.449980e+04 9.625604e+04 9.625604e+04 9.626256e+04 9.626256e+04 9.519018e+04 9.519018e+04 9.660794e+04 9.449980e+04 9.449980e+04 9.886860e+04 9.886860e+04 9.886860e+04 9.569814e+04 9.485495e+04 9.479761e+04 9.724597e+04 9.724597e+04 9.907133e+04 9.907133e+04 9.907133e+04 9.879801e+04 9.840662e+04 1.006482e+05 1.006482e+05 1.006482e+05 9.495439e+04 9.957616e+04 9.957616e+04 9.957616e+04 9.791984e+04 9.791984e+04 9.791984e+04 9.588391e+04 1.007400e+05 1.007400e+05 1.007400e+05 9.911878e+04 9.864786e+04 9.864786e+04 9.864786e+04 9.886461e+04 9.526516e+04 9.475291e+04 1.008351e+05 1.008351e+05 1.008351e+05 9.644612e+04 9.644612e+04 9.534847e+04 9.534847e+04 9.587491e+04 9.619488e+04 9.984385e+04 9.657432e+04 9.807459e+04 9.807459e+04 1.000266e+05 1.000266e+05 1.000266e+05 1.009154e+05 1.009154e+05 1.009154e+05 9.942686e+04 9.942686e+04 9.942686e+04 1.008390e+05 1.008390e+05 9.792787e+04 9.792787e+04 9.827097e+04 9.827097e+04 9.916189e+04 9.916189e+04 9.916189e+04 9.682242e+04 9.682242e+04 9.567151e+04 9.567151e+04 9.902907e+04 9.902907e+04 9.595529e+04 9.595529e+04 9.595529e+04 9.758395e+04 1.008954e+05 1.008954e+05 9.962351e+04 9.936145e+04 9.936145e+04 9.936145e+04 9.633795e+04 9.731944e+04 1.000268e+05 1.000268e+05 1.000268e+05 1.001371e+05 1.001371e+05 9.890303e+04 9.890303e+04 9.890303e+04 9.646879e+04 1.003869e+05 1.003869e+05 1.003869e+05 9.878659e+04 9.922295e+04 1.002011e+05 1.005676e+05 1.005676e+05 1.006451e+05 1.006451e+05 9.934178e+04 1.000693e+05 1.000693e+05 1.000693e+05 9.961105e+04 9.792290e+04 9.792290e+04 1.001802e+05 1.001802e+05 1.003579e+05 1.003579e+05 1.010505e+05 1.010505e+05 9.908338e+04 9.743262e+04 1.005035e+05 1.005035e+05 1.005035e+05 9.815491e+04 9.838808e+04 1.011421e+05 1.011421e+05 1.011421e+05 1.000368e+05 9.903751e+04 9.903751e+04 9.877911e+04 1.012046e+05 1.012046e+05 1.012046e+05 1.002401e+05 9.864536e+04 9.897489e+04 1.011535e+05 1.011535e+05 1.007934e+05 1.007934e+05 1.007934e+05 1.008491e+05 1.008491e+05 1.008491e+05 9.930328e+04 9.973909e+04 1.012112e+05 1.012112e+05 1.012112e+05 1.005932e+05 1.005932e+05 1.005932e+05 1.005727e+05 1.011986e+05 1.011986e+05 1.011986e+05 1.001800e+05 1.013886e+05 1.006258e+05 1.009005e+05 1.009005e+05 1.000205e+05 1.000746e+05 1.002153e+05 1.012325e+05 1.012325e+05 1.012325e+05 1.011608e+05 1.012852e+05 1.012852e+05 1.012852e+05 1.009471e+05 1.007435e+05 1.007435e+05 1.007125e+05 1.007338e+05 1.013401e+05 1.013401e+05 1.002967e+05 1.002967e+05 1.011716e+05 1.011238e+05 1.011238e+05 1.011460e+05 1.007547e+05 1.007547e+05 1.006050e+05 1.005085e+05 1.012627e+05 1.012627e+05 1.014514e+05 1.012146e+05 1.012146e+05 1.009219e+05 1.013111e+05 1.011287e+05 1.011287e+05 1.011747e+05 1.011929e+05 1.011929e+05 1.011929e+05 1.010848e+05 1.029509e+05 1.029509e+05 1.010938e+05 1.010938e+05 1.013037e+05 1.012343e+05 1.012816e+05 1.012816e+05 1.012259e+05 1.012408e+05 1.012408e+05 1.009517e+05 1.001473e+05 1.005209e+05 1.005494e+05 1.005494e+05 1.012509e+05 1.007054e+05 1.005076e+05 1.005076e+05 9.399048e+04 9.399048e+04 1.009393e+05 9.976200e+04 1.011649e+05 1.011649e+05 1.008891e+05 1.006370e+05 1.002687e+05 1.002687e+05 9.856564e+04 9.966635e+04 9.620148e+04 1.008117e+05 1.012603e+05 1.012831e+05 1.012831e+05 1.012898e+05 9.398362e+04 9.398362e+04 9.431609e+04 9.454789e+04 9.454789e+04 9.324625e+04 9.333703e+04 9.324625e+04 9.413481e+04 9.629993e+04 9.344790e+04 9.377269e+04 9.377269e+04 9.377269e+04 9.503526e+04 9.537568e+04 9.537568e+04 9.537568e+04 9.528436e+04 9.528436e+04 9.355992e+04 9.652583e+04 9.652583e+04 9.568660e+04 9.584238e+04 9.489269e+04 9.489269e+04 9.599986e+04 9.807248e+04 9.665242e+04 9.590797e+04 9.702260e+04 9.368545e+04 9.368545e+04 9.560142e+04 9.345034e+04 9.605791e+04 9.445616e+04 9.413277e+04 9.737289e+04 9.737289e+04 9.816651e+04 9.726652e+04 9.821922e+04 9.654531e+04 9.563103e+04 9.522491e+04 9.708213e+04 9.758136e+04 9.758136e+04 9.758136e+04 9.761397e+04 9.610090e+04 9.627383e+04 9.572054e+04 9.572054e+04 9.680094e+04 9.934495e+04 9.934495e+04 9.679065e+04 9.540470e+04 9.699289e+04 9.759841e+04 9.882807e+04 9.882807e+04 9.657162e+04 9.657162e+04 9.657162e+04 9.830529e+04 9.830529e+04 9.636227e+04 9.835047e+04 9.768362e+04 9.923382e+04 9.923382e+04 9.923382e+04 9.686955e+04 9.915416e+04 9.915416e+04 9.815065e+04 9.772584e+04 1.001326e+05 1.001326e+05 9.845559e+04 9.861331e+04 9.861331e+04 1.000595e+05 9.874401e+04 9.595759e+04 9.818559e+04 9.902038e+04 9.856010e+04 9.856010e+04 9.986244e+04 9.986244e+04 9.986244e+04 9.719097e+04 9.966903e+04 9.949100e+04 9.712554e+04 9.738013e+04 9.860830e+04 9.870205e+04 9.941588e+04 9.957674e+04 9.957674e+04 9.820682e+04 9.820682e+04 9.789682e+04 9.786832e+04 9.656764e+04 9.842280e+04 9.891251e+04 9.739571e+04 9.799564e+04 9.994010e+04 9.971999e+04 9.971999e+04 9.971999e+04 1.003190e+05 9.782553e+04 9.937061e+04 9.937061e+04 1.004268e+05 9.982745e+04 1.006218e+05 1.006218e+05 1.004059e+05 9.992735e+04 1.000396e+05 1.000396e+05 1.007326e+05 1.005304e+05 1.005304e+05 1.001236e+05 9.982768e+04 1.004695e+05 1.006139e+05 9.954505e+04 9.918783e+04 9.930881e+04 9.997789e+04 9.917943e+04 1.007587e+05 1.005938e+05 1.005037e+05 1.005624e+05 1.004415e+05 9.974743e+04 1.009252e+05 1.009252e+05 1.009450e+05 1.009408e+05 9.875124e+04 1.006611e+05 1.006611e+05 1.009601e+05 1.009601e+05 1.009679e+05 9.990215e+04 1.010866e+05 1.000653e+05 1.006857e+05 1.008110e+05 9.999418e+04 1.008590e+05 9.951332e+04 1.007221e+05 1.007221e+05 1.010005e+05 1.004091e+05 1.011935e+05 1.011935e+05 1.011624e+05 1.010135e+05 1.004498e+05 9.931685e+04 1.011499e+05 1.002662e+05 1.010747e+05 1.010747e+05 1.010869e+05 1.010652e+05 1.009641e+05 1.011264e+05 1.011308e+05 1.005789e+05 1.011396e+05 1.008865e+05 1.008865e+05 1.008062e+05 1.011717e+05 1.011801e+05 9.828006e+04 1.012180e+05 1.010359e+05 1.012355e+05 1.007428e+05 1.012638e+05 1.012638e+05 1.011011e+05 1.011550e+05 1.006265e+05 1.006265e+05 1.012541e+05 1.012541e+05 1.012541e+05 1.008459e+05 1.011947e+05 1.009962e+05 9.957730e+04 1.010955e+05 1.012113e+05 9.940758e+04 1.012277e+05 1.012277e+05 1.011785e+05 1.003556e+05 1.011919e+05 1.011205e+05 1.012084e+05 1.011281e+05 1.012094e+05 1.012204e+05 1.012204e+05 1.009728e+05 1.009661e+05 1.012651e+05 1.011551e+05 1.010074e+05 1.010074e+05 1.010074e+05 1.011033e+05 1.012672e+05 1.012381e+05 1.012454e+05 1.012454e+05 1.012454e+05 1.012733e+05 1.011154e+05 1.011154e+05 1.012564e+05 1.012617e+05 1.012203e+05 1.012480e+05 1.012290e+05 1.012830e+05 1.013119e+05 1.012689e+05 1.012660e+05 1.010260e+05 1.012753e+05 1.012883e+05 1.010710e+05 1.011856e+05 1.011856e+05 1.012341e+05 1.012341e+05 1.012443e+05 1.012238e+05 1.012606e+05 1.011676e+05 1.012205e+05 1.012459e+05 1.012498e+05 1.013046e+05 1.003454e+05 1.012704e+05 1.012554e+05 1.012438e+05 1.012458e+05 1.012768e+05 1.012171e+05 1.012446e+05 1.012366e+05 1.006830e+05 1.012881e+05 1.013190e+05 1.012491e+05 1.012491e+05 1.012749e+05 1.012749e+05 1.008418e+05 1.008418e+05 1.012897e+05 1.012481e+05 1.012320e+05 1.012925e+05 1.012317e+05 1.011385e+05 1.010708e+05 1.012974e+05 1.012543e+05 1.012781e+05 1.012815e+05 1.012700e+05 1.013157e+05 1.013205e+05 1.013161e+05 9.324625e+04 9.334670e+04 9.354541e+04 9.392074e+04 9.398362e+04 9.431609e+04 9.431609e+04 9.448744e+04 9.473864e+04 9.503526e+04 9.503526e+04 9.528436e+04 9.536106e+04 9.568660e+04 9.568660e+04 9.584238e+04 9.599986e+04 9.620148e+04 9.645592e+04 9.652583e+04 9.659767e+04 9.689370e+04 9.702260e+04 9.702260e+04 9.726652e+04 9.737289e+04 9.741942e+04 9.754106e+04 9.779202e+04 9.785252e+04 9.796258e+04 9.807248e+04 9.816651e+04 9.824959e+04 9.835047e+04 9.845559e+04 9.861331e+04 9.874401e+04 9.882807e+04 9.891341e+04 9.899657e+04 9.903093e+04 9.915763e+04 9.927965e+04 9.934495e+04 9.937243e+04 9.949100e+04 9.956297e+04 9.959820e+04 9.966903e+04 9.973670e+04 9.981923e+04 9.994010e+04 9.994010e+04 1.000595e+05 1.000595e+05 1.001326e+05 1.002280e+05 1.002507e+05 1.002913e+05 1.003822e+05 1.004268e+05 1.004268e+05 1.004695e+05 1.005304e+05 1.005530e+05 1.006218e+05 1.006712e+05 1.006712e+05 1.007326e+05 1.007425e+05 1.007724e+05 1.008117e+05 1.008590e+05 1.008590e+05 1.008895e+05 1.009252e+05 1.009450e+05 1.009647e+05 1.010005e+05 1.010184e+05 1.010184e+05 1.010406e+05 1.010652e+05 1.010869e+05 1.010869e+05 1.011011e+05 1.011264e+05 1.011264e+05 1.011499e+05 1.011624e+05 1.011624e+05 1.011717e+05 1.011801e+05 1.011935e+05 1.011966e+05 1.012113e+05 1.012180e+05 1.012180e+05 1.012277e+05 1.012355e+05 1.012355e+05 1.012409e+05 1.012480e+05 1.012516e+05 1.012603e+05 1.012603e+05 1.012673e+05 1.012733e+05 1.012733e+05 1.012815e+05 1.012831e+05 1.012898e+05 1.012936e+05 1.012936e+05 1.013015e+05 1.013046e+05 1.013061e+05 1.013119e+05 1.013141e+05 1.013190e+05 1.013250e+05 1.013250e+05 1.013250e+05 1.013250e+05 1.013250e+05 1.013131e+05 1.012900e+05 1.012808e+05 1.013018e+05 1.017465e+05 1.027491e+05 1.027491e+05 1.027491e+05 1.006438e+05 1.006438e+05 1.006438e+05 1.007135e+05 1.007135e+05 1.013117e+05 1.013117e+05 9.995432e+04 9.995432e+04 9.995432e+04 1.003546e+05 1.003546e+05 1.010562e+05 1.010562e+05 1.010562e+05 1.013029e+05 1.017465e+05 1.017465e+05 1.015995e+05 1.012819e+05 1.012819e+05 1.012819e+05 1.012864e+05 1.012864e+05 1.012781e+05 1.012929e+05 1.012929e+05 1.012861e+05 1.013131e+05 1.012984e+05 1.012961e+05 1.013145e+05 1.013145e+05 1.013181e+05 1.013181e+05 1.013202e+05 1.013220e+05 1.000936e+05 1.000936e+05 1.000936e+05 9.991992e+04 9.991992e+04 9.973359e+04 9.768244e+04 9.768244e+04 9.768244e+04 9.766666e+04 9.770918e+04 1.004716e+05 9.933730e+04 9.933730e+04 9.941895e+04 9.780971e+04 9.780971e+04 9.785598e+04 9.934176e+04 9.934176e+04 9.934176e+04 9.305137e+04 9.305137e+04 9.305137e+04 9.386152e+04 9.386152e+04 9.386152e+04 1.006292e+05 1.006292e+05 1.006292e+05 9.633096e+04 9.633096e+04 9.633096e+04 9.869579e+04 9.869579e+04 9.869579e+04 9.873573e+04 9.587607e+04 9.587607e+04 9.764961e+04 9.764961e+04 9.764961e+04 9.329517e+04 9.353278e+04 9.752883e+04 9.752883e+04 1.001137e+05 1.001137e+05 1.001137e+05 1.003020e+05 1.003020e+05 9.999694e+04 1.002423e+05 1.002423e+05 1.016618e+05 1.016618e+05 1.016618e+05 1.008423e+05 1.008423e+05 9.696175e+04 9.696175e+04 9.696175e+04 9.750022e+04 9.517694e+04 9.636698e+04 9.851004e+04 9.851004e+04 9.802484e+04 9.802484e+04 9.802484e+04 9.574671e+04 9.517222e+04 9.517222e+04 9.674273e+04 9.674273e+04 9.674273e+04 1.004106e+05 1.004106e+05 1.004106e+05 9.758624e+04 9.758624e+04 9.758624e+04 1.017177e+05 1.012474e+05 9.336404e+04 9.336404e+04 9.336404e+04 9.385207e+04 9.932836e+04 9.932836e+04 9.399336e+04 9.826384e+04 9.826384e+04 9.826384e+04 9.358090e+04 9.358090e+04 9.835718e+04 9.835718e+04 9.716629e+04 9.716629e+04 9.716629e+04 9.531256e+04 9.531256e+04 9.531256e+04 9.541953e+04 9.541953e+04 9.541953e+04 9.377911e+04 9.377911e+04 9.851192e+04 9.851192e+04 9.433624e+04 9.433624e+04 9.433624e+04 9.844912e+04 9.897866e+04 9.897866e+04 9.897866e+04 9.397667e+04 9.849890e+04 9.849890e+04 9.688337e+04 9.688337e+04 9.688337e+04 9.945653e+04 9.945653e+04 9.945653e+04 9.549963e+04 9.588561e+04 9.588561e+04 9.588561e+04 9.476725e+04 9.476725e+04 9.476725e+04 9.357959e+04 9.365090e+04 9.653297e+04 9.653297e+04 9.653297e+04 9.677321e+04 9.677321e+04 9.939666e+04 9.939666e+04 9.939666e+04 9.414553e+04 9.414553e+04 9.414553e+04 9.419112e+04 9.424449e+04 9.412724e+04 9.412724e+04 9.891275e+04 9.891275e+04 9.891275e+04 9.474981e+04 9.474981e+04 9.646417e+04 9.646417e+04 9.323483e+04 9.453970e+04 9.453970e+04 9.569954e+04 9.569954e+04 9.569954e+04 9.793306e+04 9.453381e+04 9.532953e+04 9.532953e+04 9.837135e+04 9.837135e+04 9.800209e+04 9.800209e+04 9.800209e+04 9.689643e+04 9.689643e+04 1.001835e+05 1.001835e+05 1.001835e+05 9.957045e+04 9.957045e+04 9.957045e+04 9.754763e+04 9.399909e+04 9.919351e+04 9.919351e+04 9.919351e+04 9.652552e+04 9.652552e+04 9.652552e+04 9.592462e+04 9.589302e+04 9.399909e+04 9.690521e+04 9.975201e+04 9.975201e+04 9.975201e+04 9.728218e+04 9.728218e+04 9.999008e+04 9.999008e+04 9.999008e+04 9.750053e+04 9.750053e+04 9.750053e+04 9.718879e+04 1.003014e+05 1.003014e+05 1.003014e+05 9.750916e+04 9.642548e+04 9.642548e+04 9.701309e+04 9.891837e+04 9.891837e+04 9.718004e+04 9.785914e+04 9.785914e+04 9.802969e+04 9.802969e+04 9.774157e+04 9.684943e+04 9.950668e+04 9.950668e+04 9.950668e+04 9.812849e+04 1.002844e+05 1.002844e+05 9.529497e+04 9.822386e+04 9.822386e+04 9.823301e+04 1.008087e+05 1.008087e+05 1.008087e+05 1.001112e+05 1.001112e+05 9.846664e+04 9.846664e+04 9.866922e+04 9.866922e+04 9.732868e+04 9.992843e+04 9.992843e+04 9.992843e+04 9.925791e+04 9.925791e+04 9.925791e+04 9.636698e+04 9.995866e+04 9.995866e+04 9.923656e+04 9.918568e+04 9.572037e+04 9.715256e+04 9.774637e+04 9.774637e+04 1.004191e+05 1.004191e+05 1.004191e+05 9.871517e+04 1.009785e+05 1.009785e+05 1.009785e+05 9.913625e+04 9.913625e+04 9.880700e+04 9.764361e+04 1.007987e+05 1.007987e+05 1.007987e+05 1.005086e+05 1.005086e+05 1.005086e+05 1.006608e+05 1.006608e+05 1.003313e+05 1.003313e+05 1.002149e+05 1.002149e+05 1.001097e+05 9.817494e+04 9.817494e+04 9.880533e+04 9.880533e+04 9.955283e+04 9.955283e+04 9.809444e+04 1.009619e+05 1.010205e+05 1.010205e+05 1.010205e+05 9.943627e+04 1.005289e+05 1.005289e+05 9.971857e+04 9.971857e+04 1.001733e+05 9.835267e+04 9.947853e+04 1.001040e+05 1.001040e+05 1.002558e+05 1.002558e+05 9.919819e+04 1.010651e+05 1.010651e+05 1.010651e+05 1.011485e+05 1.011485e+05 1.011485e+05 9.975338e+04 9.975338e+04 9.975338e+04 9.949898e+04 9.949898e+04 1.012878e+05 1.012878e+05 1.012878e+05 1.010473e+05 1.010473e+05 1.010473e+05 1.005081e+05 1.011042e+05 1.011042e+05 1.011042e+05 1.006136e+05 1.006136e+05 9.981630e+04 1.010588e+05 1.010588e+05 1.012266e+05 1.012266e+05 1.012266e+05 9.994742e+04 9.994742e+04 1.004081e+05 1.004081e+05 1.007994e+05 1.007994e+05 1.007994e+05 1.012090e+05 1.012090e+05 1.012090e+05 1.007640e+05 1.012142e+05 1.012142e+05 1.012142e+05 1.012943e+05 1.012943e+05 1.012943e+05 1.009223e+05 1.009223e+05 1.009223e+05 1.008122e+05 1.009472e+05 1.009472e+05 1.008400e+05 1.004006e+05 1.004006e+05 1.012927e+05 1.009613e+05 1.009613e+05 1.009613e+05 1.012282e+05 1.012282e+05 1.012282e+05 1.009551e+05 1.009551e+05 1.009551e+05 1.011232e+05 1.011232e+05 