<?xml version="1.0"?>
 <VTKFile type="UnstructuredGrid" version="1.0" byte_order="LittleEndian" header_type="UInt64">
  <UnstructuredGrid>
    <FieldData>
     <DataArray type="Float64" Name="TimeValue" NumberOfTuples="1" format="ascii">
0.00016
     </DataArray>
    </FieldData>
   <Piece NumberOfPoints="3632" NumberOfCells="3379">
    <PointData>
     <DataArray type="Float64" Name="pointP" format="ascii">
1.446112e+05 1.446112e+05 1.444794e+05 1.442784e+05 1.441839e+05 1.440679e+05 1.438805e+05 1.436613e+05 1.434818e+05 1.432928e+05 1.430902e+05 1.428804e+05 1.426593e+05 1.424284e+05 1.422291e+05 1.418902e+05 1.416685e+05 1.414573e+05 1.411631e+05 1.408733e+05 1.406155e+05 1.403047e+05 1.399929e+05 1.396639e+05 1.393221e+05 1.389321e+05 1.385976e+05 1.382806e+05 1.379226e+05 1.374965e+05 1.371652e+05 1.367507e+05 1.363705e+05 1.359030e+05 1.354210e+05 1.350972e+05 1.346775e+05 1.342363e+05 1.337176e+05 1.333084e+05 1.328550e+05 1.323745e+05 1.319405e+05 1.314097e+05 1.308990e+05 1.304402e+05 1.299785e+05 1.294862e+05 1.288620e+05 1.284084e+05 1.279416e+05 1.274385e+05 1.270062e+05 1.264207e+05 1.256427e+05 1.250690e+05 1.244213e+05 1.239270e+05 1.233852e+05 1.228277e+05 1.222816e+05 1.217218e+05 1.210990e+05 1.205475e+05 1.199794e+05 1.193597e+05 1.186746e+05 1.181162e+05 1.175423e+05 1.169608e+05 1.162997e+05 1.157007e+05 1.150943e+05 1.144940e+05 1.138218e+05 1.132294e+05 1.125619e+05 1.119257e+05 1.112746e+05 1.107072e+05 1.099770e+05 1.093140e+05 1.086671e+05 1.079960e+05 1.073954e+05 1.067747e+05 1.061521e+05 1.055246e+05 1.048191e+05 1.041574e+05 1.035215e+05 1.028757e+05 1.021369e+05 1.016092e+05 1.009728e+05 1.003969e+05 9.972449e+04 9.909814e+04 9.849137e+04 9.773600e+04 9.713581e+04 9.652358e+04 9.596528e+04 9.524858e+04 9.464327e+04 9.404586e+04 9.344290e+04 9.279708e+04 9.219465e+04 9.161813e+04 9.104328e+04 9.045550e+04 8.987519e+04 8.919593e+04 8.860091e+04 8.793878e+04 8.735198e+04 8.681523e+04 8.622258e+04 8.564575e+04 8.511307e+04 8.456266e+04 8.399097e+04 8.343509e+04 8.290359e+04 8.232404e+04 8.184684e+04 8.127991e+04 8.072901e+04 8.024754e+04 7.977297e+04 7.913764e+04 7.868962e+04 7.822162e+04 7.781001e+04 7.727137e+04 7.679470e+04 7.640097e+04 7.586468e+04 7.547690e+04 7.507197e+04 7.453892e+04 7.414778e+04 7.371739e+04 7.327021e+04 7.289867e+04 7.251204e+04 7.209705e+04 7.169169e+04 7.139107e+04 7.105439e+04 7.062779e+04 7.026819e+04 6.994407e+04 6.958059e+04 6.927981e+04 6.901391e+04 6.859202e+04 6.831929e+04 6.802613e+04 6.776880e+04 6.745648e+04 6.721600e+04 6.694174e+04 6.669162e+04 6.648632e+04 6.628589e+04 6.610092e+04 6.589944e+04 6.574163e+04 6.547521e+04 6.530135e+04 6.513035e+04 6.498721e+04 6.487208e+04 6.469417e+04 6.457873e+04 6.445450e+04 6.431922e+04 6.423142e+04 6.417206e+04 1.025573e+05 1.025573e+05 1.025573e+05 1.041946e+05 1.041946e+05 1.041946e+05 1.045884e+05 1.042627e+05 1.063514e+05 1.052152e+05 1.086221e+05 1.086221e+05 1.086221e+05 1.085624e+05 9.655066e+04 9.655066e+04 9.655066e+04 9.648181e+04 9.714128e+04 1.316012e+05 1.316012e+05 1.316012e+05 1.315134e+05 1.311714e+05 1.311714e+05 1.311714e+05 1.303576e+05 9.937995e+04 9.937995e+04 9.937995e+04 1.000230e+05 1.005671e+05 1.005429e+05 7.877651e+04 7.877651e+04 7.877651e+04 7.780710e+04 7.780710e+04 1.302715e+05 1.302715e+05 1.302715e+05 1.297093e+05 7.297403e+04 7.297403e+04 7.297403e+04 7.208305e+04 7.208305e+04 1.426157e+05 1.426157e+05 1.426157e+05 1.136719e+05 1.136719e+05 1.136719e+05 1.140598e+05 1.075915e+05 1.075915e+05 1.075915e+05 1.279366e+05 1.279366e+05 1.279366e+05 1.280517e+05 8.021165e+04 8.021165e+04 8.027378e+04 8.027378e+04 1.159239e+05 1.159239e+05 1.164051e+05 1.288690e+05 1.288690e+05 1.288690e+05 1.294738e+05 1.294738e+05 6.866080e+04 6.866080e+04 6.866080e+04 6.948834e+04 6.948834e+04 9.907502e+04 9.907502e+04 9.907502e+04 9.813158e+04 9.813158e+04 1.325734e+05 1.325734e+05 1.167711e+05 1.167711e+05 1.167711e+05 1.169172e+05 1.077107e+05 1.077107e+05 1.077107e+05 1.074458e+05 1.075048e+05 1.181158e+05 1.181158e+05 1.181158e+05 1.146336e+05 1.146336e+05 1.148770e+05 1.350972e+05 1.353302e+05 1.353302e+05 6.498721e+04 6.549182e+04 6.549182e+04 1.070665e+05 8.290359e+04 8.332472e+04 1.076107e+05 1.039746e+05 1.039746e+05 1.039746e+05 1.045851e+05 9.869570e+04 1.039347e+05 1.039347e+05 1.039347e+05 1.049986e+05 1.049986e+05 9.551479e+04 9.551479e+04 9.551479e+04 9.640339e+04 8.828871e+04 8.828871e+04 8.828871e+04 8.811463e+04 1.304833e+05 1.302634e+05 1.292980e+05 1.325512e+05 1.325512e+05 1.054525e+05 1.054525e+05 1.054525e+05 1.060460e+05 1.205375e+05 1.205375e+05 1.205375e+05 1.212723e+05 1.212723e+05 1.205852e+05 8.408783e+04 8.408783e+04 8.408783e+04 8.368108e+04 8.822533e+04 8.822533e+04 8.822533e+04 8.901437e+04 8.947464e+04 1.155489e+05 1.155489e+05 1.155489e+05 1.156161e+05 7.129835e+04 6.927617e+04 9.470785e+04 9.470785e+04 9.470785e+04 9.543980e+04 7.960476e+04 7.960476e+04 7.960476e+04 7.987104e+04 1.253853e+05 1.253853e+05 1.253853e+05 1.263066e+05 1.263066e+05 7.541668e+04 7.541668e+04 7.541668e+04 7.580949e+04 1.250785e+05 1.250785e+05 1.250785e+05 1.248031e+05 1.303745e+05 1.303745e+05 1.303745e+05 1.303474e+05 8.410853e+04 8.410853e+04 8.404484e+04 1.082053e+05 1.082053e+05 1.098910e+05 1.098910e+05 1.098910e+05 1.046851e+05 1.046851e+05 1.046851e+05 1.043990e+05 6.528455e+04 6.528455e+04 6.528455e+04 6.519631e+04 6.519631e+04 1.391219e+05 1.391219e+05 1.391219e+05 1.387396e+05 1.387396e+05 1.086393e+05 1.240468e+05 1.240468e+05 1.244293e+05 6.474206e+04 6.474206e+04 6.474206e+04 6.467739e+04 6.991763e+04 6.991763e+04 7.032885e+04 7.032885e+04 1.333620e+05 1.333620e+05 1.336653e+05 1.288173e+05 1.288173e+05 6.834729e+04 6.834729e+04 6.873827e+04 6.873827e+04 1.268380e+05 1.268380e+05 1.268380e+05 1.265616e+05 1.072210e+05 1.068506e+05 1.155644e+05 1.155644e+05 1.155644e+05 1.151736e+05 1.195270e+05 1.195270e+05 1.195270e+05 1.188187e+05 1.188187e+05 6.704853e+04 6.704853e+04 6.704853e+04 6.704872e+04 6.704872e+04 1.171140e+05 1.177401e+05 1.420277e+05 1.420277e+05 1.420277e+05 1.419271e+05 7.129378e+04 7.129378e+04 7.129378e+04 7.056072e+04 7.056072e+04 7.137261e+04 7.164212e+04 1.090604e+05 1.090604e+05 1.090604e+05 1.084149e+05 1.084149e+05 1.011209e+05 1.013808e+05 1.013808e+05 8.071735e+04 8.071735e+04 8.071735e+04 8.102816e+04 8.102816e+04 8.405835e+04 8.405835e+04 8.405835e+04 8.351385e+04 8.351385e+04 7.411246e+04 7.411246e+04 7.499017e+04 7.499017e+04 1.082976e+05 1.082976e+05 1.076514e+05 7.601346e+04 7.601346e+04 7.583686e+04 7.583686e+04 8.327052e+04 8.327052e+04 8.327052e+04 8.461249e+04 9.621219e+04 9.621219e+04 9.621219e+04 9.485715e+04 9.485715e+04 1.276708e+05 1.300209e+05 1.241979e+05 1.045029e+05 1.045029e+05 1.045029e+05 1.054278e+05 1.054278e+05 1.075743e+05 1.075743e+05 1.080395e+05 1.026715e+05 1.026715e+05 1.025148e+05 1.016248e+05 1.092008e+05 1.092008e+05 1.092008e+05 1.083392e+05 1.083392e+05 1.083392e+05 1.122371e+05 1.122371e+05 1.122371e+05 9.617830e+04 9.692431e+04 1.057482e+05 1.124814e+05 1.124814e+05 1.124814e+05 1.115480e+05 1.158103e+05 1.158103e+05 1.158103e+05 1.158368e+05 1.158368e+05 1.158368e+05 1.152670e+05 8.675394e+04 8.675394e+04 8.675394e+04 9.667285e+04 9.667285e+04 9.667285e+04 1.107601e+05 1.107601e+05 1.107601e+05 1.256491e+05 1.256491e+05 1.257681e+05 8.138075e+04 8.713067e+04 8.713067e+04 1.319310e+05 1.319310e+05 1.319310e+05 1.331618e+05 1.331618e+05 1.052643e+05 1.052643e+05 6.736717e+04 6.824169e+04 6.927617e+04 1.365311e+05 1.365311e+05 1.365311e+05 1.359825e+05 8.971108e+04 8.971108e+04 8.971108e+04 1.070883e+05 1.070058e+05 1.065626e+05 9.617244e+04 9.617244e+04 9.617244e+04 7.990949e+04 7.990949e+04 7.990949e+04 7.973673e+04 7.932808e+04 1.089440e+05 1.089440e+05 1.089440e+05 1.401885e+05 1.401885e+05 1.401885e+05 1.401597e+05 1.200944e+05 1.200944e+05 1.200944e+05 1.198230e+05 1.405272e+05 1.405272e+05 1.405272e+05 1.155199e+05 1.000970e+05 1.000970e+05 1.020405e+05 1.020405e+05 1.020405e+05 1.018334e+05 1.020038e+05 6.592739e+04 6.592739e+04 6.626519e+04 6.506648e+04 6.497009e+04 1.277282e+05 1.277282e+05 8.318322e+04 8.318322e+04 8.318322e+04 8.351602e+04 6.716838e+04 6.716838e+04 6.716838e+04 6.752278e+04 1.205475e+05 1.205585e+05 1.205585e+05 9.398402e+04 9.398402e+04 9.398402e+04 9.380949e+04 6.963882e+04 9.742209e+04 9.742209e+04 9.745376e+04 1.303820e+05 1.303820e+05 1.303820e+05 1.394556e+05 1.394556e+05 1.376046e+05 1.376046e+05 1.376046e+05 1.380025e+05 1.412032e+05 1.412032e+05 1.412032e+05 1.409560e+05 1.409560e+05 1.411158e+05 1.353341e+05 1.353341e+05 1.013165e+05 7.814255e+04 7.814255e+04 7.860301e+04 9.434765e+04 1.438155e+05 1.432692e+05 1.438155e+05 1.438155e+05 1.229820e+05 1.229820e+05 1.229820e+05 1.223427e+05 1.223427e+05 1.311924e+05 1.311924e+05 1.315487e+05 1.315487e+05 1.269145e+05 1.269145e+05 1.269145e+05 1.278645e+05 1.278645e+05 1.050941e+05 1.050941e+05 1.050941e+05 1.056751e+05 1.056751e+05 1.373356e+05 1.373356e+05 1.373356e+05 1.359454e+05 1.359454e+05 1.170925e+05 1.170925e+05 1.170925e+05 1.068708e+05 7.131430e+04 7.131430e+04 7.131430e+04 7.280736e+04 7.280736e+04 7.928660e+04 7.928660e+04 7.928660e+04 8.106729e+04 8.106729e+04 8.905100e+04 8.905100e+04 8.905100e+04 9.071788e+04 9.071788e+04 1.322017e+05 1.322017e+05 1.322017e+05 1.082752e+05 1.082752e+05 1.082752e+05 1.090581e+05 1.090581e+05 9.434721e+04 9.649716e+04 8.963511e+04 8.963511e+04 8.963511e+04 8.866227e+04 1.072553e+05 1.072553e+05 1.069333e+05 1.017024e+05 1.017024e+05 1.016691e+05 1.016691e+05 1.025572e+05 1.032207e+05 1.127022e+05 1.103550e+05 1.127022e+05 1.127022e+05 1.063514e+05 1.063514e+05 1.038354e+05 1.159419e+05 1.167751e+05 1.354854e+05 1.354854e+05 1.354854e+05 1.349268e+05 1.352368e+05 9.350432e+04 9.350432e+04 9.350432e+04 9.286651e+04 7.957123e+04 8.213128e+04 6.584252e+04 6.584252e+04 6.584252e+04 6.613495e+04 1.248953e+05 1.250645e+05 1.250228e+05 1.019908e+05 1.019908e+05 1.017941e+05 6.748053e+04 6.903391e+04 6.903391e+04 6.928171e+04 6.970246e+04 7.906071e+04 7.926058e+04 7.927666e+04 9.212031e+04 9.212031e+04 9.212031e+04 9.195988e+04 7.221186e+04 7.221186e+04 7.221186e+04 7.177633e+04 1.024998e+05 7.251204e+04 7.303253e+04 7.303253e+04 1.170395e+05 1.170395e+05 1.170395e+05 9.147224e+04 1.368282e+05 1.368282e+05 9.533846e+04 9.533846e+04 9.533846e+04 1.211403e+05 6.793933e+04 6.793933e+04 9.337578e+04 9.041350e+04 9.041350e+04 9.041350e+04 9.022728e+04 8.061649e+04 6.562651e+04 6.562651e+04 6.580297e+04 6.901391e+04 1.037068e+05 1.037068e+05 7.490262e+04 7.490262e+04 7.490262e+04 7.451329e+04 1.338732e+05 1.341350e+05 1.341350e+05 1.187746e+05 7.168145e+04 7.168145e+04 7.156106e+04 1.360798e+05 1.360798e+05 1.343252e+05 1.254487e+05 8.564575e+04 8.586985e+04 8.586985e+04 1.430253e+05 1.430253e+05 8.441171e+04 1.385843e+05 1.385843e+05 8.775391e+04 8.775391e+04 8.775391e+04 8.724057e+04 7.825505e+04 7.825505e+04 8.218196e+04 8.218196e+04 6.715535e+04 6.576527e+04 1.136600e+05 1.134194e+05 7.327021e+04 7.385280e+04 7.385280e+04 1.055246e+05 1.058195e+05 1.058195e+05 6.626251e+04 6.626251e+04 6.643962e+04 6.643962e+04 1.308150e+05 1.064243e+05 1.433602e+05 1.433602e+05 1.434674e+05 1.438058e+05 1.438058e+05 1.328550e+05 1.326620e+05 1.217041e+05 1.217041e+05 1.217041e+05 1.401707e+05 1.401707e+05 1.401707e+05 1.400371e+05 8.673158e+04 8.673158e+04 1.229835e+05 6.689814e+04 6.689814e+04 9.087001e+04 8.080537e+04 9.628695e+04 9.628695e+04 9.628695e+04 7.065912e+04 7.065912e+04 1.319405e+05 1.317676e+05 1.317676e+05 1.112746e+05 1.115486e+05 1.093140e+05 1.095792e+05 6.556275e+04 1.419369e+05 1.419369e+05 7.692160e+04 7.692160e+04 7.692160e+04 7.677884e+04 1.405924e+05 8.109884e+04 8.951764e+04 8.951764e+04 8.897821e+04 8.540918e+04 8.540918e+04 6.799845e+04 6.799845e+04 6.755161e+04 1.193597e+05 1.194424e+05 1.194424e+05 9.781197e+04 1.426073e+05 1.426073e+05 1.421288e+05 1.421288e+05 9.966713e+04 9.966713e+04 9.966713e+04 7.565213e+04 7.565213e+04 7.565213e+04 1.007310e+05 1.007310e+05 1.349644e+05 1.421780e+05 1.417625e+05 1.411872e+05 1.331645e+05 1.425019e+05 7.026794e+04 1.121321e+05 1.127526e+05 7.630020e+04 7.630020e+04 1.268826e+05 1.235727e+05 7.766297e+04 7.736353e+04 9.880540e+04 9.880540e+04 1.446112e+05 1.443379e+05 1.437303e+05 1.437303e+05 1.437303e+05 1.440231e+05 1.362533e+05 1.353899e+05 1.371926e+05 1.373819e+05 1.109837e+05 1.109837e+05 1.107413e+05 1.332934e+05 7.209179e+04 7.466893e+04 1.262289e+05 1.238261e+05 1.238261e+05 1.238261e+05 9.660222e+04 8.871483e+04 8.871483e+04 8.871483e+04 1.441757e+05 1.366709e+05 1.417716e+05 1.411081e+05 8.469589e+04 1.196735e+05 1.422485e+05 1.429438e+05 6.736431e+04 6.800042e+04 6.800042e+04 1.161842e+05 1.218927e+05 7.059656e+04 6.867933e+04 1.349806e+05 1.341310e+05 1.341310e+05 7.349850e+04 7.349850e+04 7.380109e+04 7.380109e+04 8.711759e+04 1.272807e+05 1.053089e+05 6.488440e+04 1.385306e+05 1.378964e+05 9.587107e+04 1.045458e+05 1.043456e+05 1.043456e+05 1.368786e+05 1.368786e+05 1.365793e+05 1.365793e+05 9.482233e+04 9.537055e+04 8.306297e+04 8.306297e+04 8.290069e+04 9.132755e+04 9.132755e+04 9.067313e+04 9.067313e+04 8.539403e+04 8.539403e+04 6.594360e+04 1.410683e+05 1.410683e+05 1.335822e+05 1.335822e+05 1.335822e+05 1.295508e+05 7.157347e+04 7.157347e+04 7.727035e+04 7.727035e+04 6.918062e+04 6.935686e+04 1.320505e+05 1.399443e+05 6.477924e+04 6.724426e+04 6.724426e+04 9.901271e+04 9.901271e+04 9.984190e+04 6.827652e+04 6.827652e+04 8.149517e+04 8.149517e+04 1.382761e+05 1.382761e+05 1.123346e+05 1.430618e+05 1.215070e+05 1.215070e+05 1.211127e+05 1.054410e+05 1.059154e+05 6.995701e+04 7.417475e+04 8.606038e+04 1.416933e+05 6.575908e+04 8.996445e+04 8.996445e+04 8.996445e+04 1.029347e+05 1.029347e+05 1.029347e+05 1.091899e+05 9.334962e+04 9.334962e+04 9.334962e+04 9.250166e+04 1.432542e+05 1.427489e+05 1.265267e+05 1.260729e+05 1.260729e+05 1.006255e+05 1.006255e+05 1.006255e+05 1.289347e+05 7.258780e+04 1.408346e+05 1.436972e+05 1.436972e+05 1.432313e+05 1.030704e+05 8.000503e+04 8.000503e+04 8.033614e+04 8.615849e+04 8.615849e+04 1.420204e+05 6.586915e+04 8.665102e+04 8.727951e+04 7.846244e+04 1.108456e+05 1.114911e+05 1.396845e+05 9.661060e+04 9.661060e+04 9.661060e+04 8.193364e+04 8.193364e+04 1.313564e+05 1.310105e+05 1.310105e+05 1.379521e+05 1.373355e+05 7.544279e+04 7.527253e+04 1.385238e+05 1.385238e+05 1.385238e+05 1.382301e+05 7.597229e+04 7.597229e+04 7.626128e+04 6.773964e+04 6.773964e+04 1.136535e+05 1.136535e+05 1.136535e+05 1.133962e+05 8.650751e+04 1.392836e+05 1.392836e+05 1.392836e+05 1.391542e+05 1.403681e+05 7.805910e+04 7.805910e+04 7.805170e+04 7.805170e+04 7.467393e+04 1.322510e+05 1.322510e+05 9.967700e+04 9.899755e+04 1.291982e+05 1.291982e+05 7.680748e+04 7.736596e+04 1.364858e+05 1.432692e+05 1.429240e+05 8.500206e+04 8.507190e+04 1.414669e+05 9.343954e+04 9.343954e+04 9.329220e+04 9.329220e+04 8.471112e+04 9.697694e+04 9.773062e+04 1.248424e+05 8.806681e+04 7.659508e+04 7.744512e+04 1.326142e+05 1.326142e+05 1.426532e+05 1.426532e+05 1.426532e+05 1.422649e+05 6.865252e+04 6.865252e+04 6.813419e+04 1.127354e+05 1.126487e+05 1.229933e+05 6.641473e+04 6.672831e+04 6.672831e+04 6.672831e+04 6.682767e+04 9.136867e+04 1.444794e+05 1.374823e+05 1.363645e+05 1.363645e+05 7.176589e+04 7.176589e+04 7.176589e+04 7.132045e+04 1.416804e+05 1.416804e+05 1.355076e+05 1.355076e+05 1.350580e+05 1.267454e+05 1.199427e+05 1.406040e+05 8.854374e+04 8.796926e+04 1.421465e+05 1.421491e+05 1.061882e+05 1.216145e+05 1.216145e+05 1.216145e+05 1.223810e+05 7.222395e+04 9.430251e+04 9.424121e+04 6.870564e+04 6.926532e+04 1.018800e+05 1.023296e+05 8.120825e+04 8.120825e+04 1.239959e+05 8.424191e+04 8.424191e+04 8.505512e+04 8.265983e+04 8.265983e+04 9.180725e+04 7.367617e+04 7.367617e+04 7.274282e+04 1.354429e+05 1.400360e+05 1.400360e+05 8.997373e+04 9.014804e+04 9.014804e+04 1.155247e+05 7.056394e+04 6.746647e+04 6.771638e+04 1.335661e+05 1.335661e+05 1.042917e+05 8.634759e+04 1.149000e+05 1.147650e+05 1.127096e+05 1.339766e+05 1.339766e+05 1.232237e+05 1.232237e+05 1.232237e+05 1.119497e+05 1.120638e+05 1.287265e+05 1.289016e+05 1.289016e+05 1.046232e+05 1.039432e+05 1.039432e+05 1.175729e+05 1.101534e+05 1.110259e+05 1.377167e+05 1.390228e+05 1.390228e+05 1.390228e+05 1.392823e+05 7.001364e+04 7.807234e+04 9.107636e+04 9.164946e+04 8.110387e+04 8.110387e+04 8.110387e+04 9.720939e+04 9.720939e+04 9.720939e+04 9.749308e+04 9.834351e+04 7.024178e+04 7.486552e+04 7.452265e+04 9.503465e+04 9.503465e+04 7.357486e+04 7.438777e+04 7.439007e+04 7.439007e+04 9.326107e+04 8.411285e+04 8.411285e+04 8.376141e+04 1.259177e+05 1.259177e+05 1.251366e+05 8.868986e+04 8.868986e+04 1.074476e+05 7.768355e+04 7.768355e+04 7.700181e+04 7.700181e+04 6.952595e+04 6.952595e+04 6.952595e+04 1.369083e+05 1.362553e+05 1.362553e+05 6.834723e+04 6.834723e+04 6.834723e+04 6.733154e+04 6.903404e+04 9.614615e+04 1.375894e+05 1.375894e+05 1.366394e+05 1.350614e+05 1.350614e+05 1.350614e+05 1.197429e+05 1.197429e+05 1.192481e+05 1.167425e+05 1.167425e+05 1.174767e+05 7.007099e+04 7.185254e+04 7.185254e+04 1.414990e+05 1.406199e+05 8.727079e+04 8.727079e+04 8.727079e+04 1.414338e+05 7.565754e+04 7.565754e+04 7.600036e+04 7.600036e+04 6.989602e+04 6.989602e+04 7.039818e+04 7.039818e+04 6.842120e+04 6.842120e+04 6.801478e+04 1.138337e+05 1.136732e+05 8.778831e+04 1.321781e+05 1.321781e+05 1.321781e+05 9.719881e+04 1.223871e+05 7.262226e+04 1.191354e+05 1.406907e+05 8.203524e+04 1.245292e+05 1.245292e+05 1.412952e+05 1.405743e+05 1.405743e+05 1.156221e+05 1.158276e+05 1.394933e+05 1.394933e+05 1.382988e+05 7.425409e+04 7.425409e+04 9.910296e+04 1.040163e+05 1.333455e+05 1.095290e+05 1.406650e+05 1.395264e+05 1.395264e+05 8.636635e+04 9.489397e+04 9.245185e+04 1.383085e+05 1.385402e+05 7.083371e+04 7.083371e+04 8.246323e+04 8.246323e+04 1.053319e+05 6.953629e+04 6.949206e+04 6.949206e+04 1.355145e+05 8.528114e+04 8.650280e+04 9.243476e+04 9.243476e+04 9.243476e+04 9.143349e+04 9.143349e+04 1.218049e+05 1.333938e+05 1.375225e+05 1.280310e+05 1.280310e+05 1.118541e+05 1.118541e+05 1.120631e+05 1.108051e+05 1.108051e+05 1.396043e+05 1.396043e+05 1.396043e+05 1.383479e+05 1.383479e+05 1.173307e+05 1.173307e+05 1.181810e+05 1.222189e+05 1.206327e+05 1.206327e+05 1.206327e+05 7.867814e+04 1.236787e+05 1.229850e+05 1.229850e+05 7.916670e+04 7.959481e+04 6.824169e+04 7.075122e+04 1.364584e+05 1.160216e+05 1.150183e+05 1.406199e+05 1.292121e+05 1.292121e+05 1.280408e+05 1.280408e+05 1.303426e+05 1.305711e+05 1.368629e+05 7.243150e+04 7.760065e+04 7.760065e+04 7.770170e+04 6.977215e+04 1.320336e+05 6.860385e+04 9.817788e+04 8.039325e+04 1.379595e+05 1.349496e+05 1.349496e+05 1.346877e+05 1.346877e+05 9.101329e+04 1.029324e+05 1.029324e+05 1.029324e+05 8.763298e+04 1.314708e+05 1.072043e+05 7.437808e+04 7.430910e+04 8.483319e+04 6.998347e+04 7.676404e+04 7.506835e+04 7.282895e+04 7.282895e+04 7.282895e+04 1.239890e+05 8.892706e+04 7.056280e+04 1.285708e+05 1.285708e+05 1.277460e+05 1.116173e+05 9.833708e+04 9.833708e+04 1.342976e+05 1.188390e+05 1.194479e+05 7.156614e+04 1.108863e+05 1.108863e+05 1.123255e+05 6.989297e+04 7.281333e+04 7.281333e+04 7.209930e+04 1.034650e+05 1.034650e+05 1.034650e+05 1.137744e+05 9.359606e+04 1.083327e+05 9.174656e+04 9.069981e+04 9.069981e+04 8.786321e+04 8.119305e+04 1.240750e+05 1.240750e+05 1.304858e+05 8.568234e+04 8.568234e+04 8.568234e+04 8.521579e+04 1.375701e+05 1.158546e+05 1.356443e+05 1.340675e+05 1.012091e+05 1.219196e+05 1.224215e+05 1.352999e+05 1.147274e+05 1.146708e+05 7.129835e+04 1.142477e+05 1.291619e+05 1.291619e+05 1.291619e+05 1.394010e+05 1.388005e+05 1.283180e+05 1.339655e+05 1.394010e+05 7.445013e+04 7.289280e+04 8.265970e+04 1.190795e+05 1.173162e+05 1.096983e+05 7.631139e+04 7.631139e+04 7.631139e+04 8.686083e+04 1.337263e+05 1.337263e+05 1.369085e+05 1.369085e+05 1.126408e+05 7.393137e+04 1.329629e+05 9.965222e+04 9.965222e+04 9.965222e+04 9.491583e+04 1.317697e+05 1.317697e+05 9.899664e+04 1.085021e+05 1.197064e+05 7.665925e+04 1.292257e+05 1.292257e+05 1.292257e+05 7.523576e+04 7.523576e+04 7.523576e+04 1.390847e+05 1.080653e+05 1.347796e+05 1.347796e+05 7.359595e+04 7.359595e+04 7.359595e+04 7.439774e+04 9.352500e+04 9.352500e+04 9.352500e+04 1.251802e+05 1.251802e+05 1.251802e+05 1.280177e+05 1.015369e+05 1.012874e+05 1.033019e+05 1.033019e+05 1.033019e+05 9.624565e+04 9.665827e+04 9.665827e+04 1.241249e+05 1.220511e+05 1.375989e+05 1.009952e+05 1.004375e+05 7.843234e+04 8.109446e+04 1.147602e+05 8.526729e+04 7.750781e+04 7.750781e+04 7.656962e+04 1.310053e+05 1.124691e+05 8.745002e+04 8.682381e+04 9.842758e+04 1.145877e+05 9.235830e+04 9.235830e+04 1.224655e+05 1.244849e+05 1.236815e+05 8.407127e+04 1.078988e+05 1.322185e+05 7.884248e+04 7.884248e+04 7.563074e+04 7.563074e+04 1.263112e+05 1.263112e+05 1.263112e+05 1.245282e+05 1.245282e+05 1.142612e+05 1.280168e+05 1.275835e+05 1.275835e+05 8.518842e+04 1.106512e+05 1.121251e+05 1.175362e+05 1.175362e+05 1.194171e+05 1.249868e+05 7.928616e+04 7.928616e+04 1.230591e+05 1.222996e+05 7.843234e+04 7.843234e+04 8.764273e+04 9.106885e+04 9.106885e+04 9.106885e+04 1.055098e+05 8.353985e+04 8.403042e+04 9.939154e+04 9.939154e+04 9.939154e+04 1.025822e+05 1.037898e+05 1.124874e+05 1.017560e+05 8.681569e+04 1.175815e+05 1.175815e+05 1.175815e+05 1.163819e+05 9.019594e+04 1.239643e+05 1.239643e+05 1.239643e+05 1.202265e+05 8.069843e+04 1.216889e+05 1.216889e+05 1.060147e+05 8.064626e+04 8.064626e+04 8.064626e+04 8.018980e+04 8.018980e+04 1.298058e+05 1.276786e+05 1.276786e+05 8.189952e+04 8.940842e+04 8.940842e+04 1.157642e+05 8.267937e+04 8.267937e+04 8.267937e+04 8.470905e+04 8.470905e+04 8.470905e+04 1.030588e+05 1.030588e+05 1.040594e+05 9.522229e+04 8.208994e+04 8.208994e+04 1.025033e+05 1.090763e+05 1.090763e+05 1.074590e+05 1.074590e+05 1.210036e+05 9.272415e+04 9.316577e+04 9.316577e+04 9.199444e+04 9.199444e+04 9.908825e+04 9.908825e+04 1.011599e+05 1.136401e+05 1.136401e+05 1.121365e+05 1.121365e+05 9.597436e+04 1.142328e+05 1.248114e+05 1.241684e+05 1.241684e+05 1.126789e+05 1.066199e+05 9.835555e+04 1.224016e+05 1.224016e+05 1.141256e+05 1.241979e+05 1.241979e+05 8.301942e+04 8.301942e+04 1.162614e+05 1.203398e+05 1.203398e+05 1.203398e+05 1.184433e+05 1.184433e+05 1.216147e+05 1.093804e+05 1.093804e+05 1.188119e+05 1.188119e+05 1.172954e+05 9.838115e+04 1.056961e+05 8.877137e+04 8.785976e+04 1.213296e+05 1.213296e+05 9.014646e+04 9.014646e+04 1.029321e+05 1.029321e+05 8.447785e+04 1.074077e+05 1.074077e+05 1.058110e+05 9.572297e+04 9.572297e+04 1.155815e+05 1.155815e+05 1.139586e+05 1.098554e+05 1.098554e+05 9.920873e+04 9.920873e+04 1.046518e+05 1.046518e+05 1.017315e+05 1.019903e+05 1.019903e+05 9.240047e+04 9.218570e+04 9.808119e+04 1.091053e+05 1.092664e+05 1.194226e+05 1.189553e+05 1.155428e+05 1.155428e+05 1.192346e+05 9.499597e+04 9.499597e+04 9.297179e+04 1.115380e+05 1.189558e+05 1.207038e+05 1.207038e+05 1.015889e+05 1.015889e+05 1.160722e+05 1.186206e+05 9.848036e+04 9.848036e+04 1.145782e+05 1.145782e+05 9.098656e+04 9.428786e+04 9.428786e+04 9.428786e+04 9.265268e+04 9.265268e+04 1.141901e+05 1.126928e+05 1.101070e+05 1.101070e+05 1.121079e+05 1.121079e+05 1.140526e+05 9.736823e+04 1.175800e+05 1.150697e+05 1.067398e+05 1.043682e+05 1.092053e+05 1.065047e+05 1.117072e+05 1.001962e+05 1.054096e+05 1.081782e+05 1.068089e+05 1.073773e+05 1.110423e+05 1.103550e+05 1.023355e+05 1.023355e+05 1.066948e+05 1.060057e+05 1.090221e+05 1.012052e+05 1.018730e+05 1.074013e+05 1.074013e+05 1.072454e+05 1.072454e+05 1.035605e+05 1.035605e+05 1.062751e+05 1.051303e+05 1.051303e+05 1.051303e+05 1.051081e+05 1.051081e+05 9.780835e+04 9.780835e+04 9.780835e+04 9.322345e+04 9.322345e+04 8.643148e+04 8.739306e+04 1.003672e+05 8.643148e+04 8.643148e+04 8.544488e+04 9.100520e+04 9.388339e+04 9.531711e+04 9.591032e+04 9.604953e+04 9.829765e+04 9.848869e+04 9.992010e+04 9.992010e+04 1.032809e+05 8.466269e+04 1.003672e+05 1.187308e+05 1.128511e+05 1.062232e+05 1.186819e+05 1.186819e+05 1.158854e+05 1.155970e+05 1.158854e+05 1.035486e+05 1.142763e+05 1.046985e+05 1.010009e+05 1.012880e+05 1.012880e+05 1.053354e+05 1.446112e+05 1.446112e+05 1.444794e+05 1.442784e+05 1.441839e+05 1.440679e+05 1.438805e+05 1.436613e+05 1.434818e+05 1.432928e+05 1.430902e+05 1.428804e+05 1.426593e+05 1.424284e+05 1.422291e+05 1.418902e+05 1.416685e+05 1.414573e+05 1.411631e+05 1.408733e+05 1.406155e+05 1.403047e+05 1.399929e+05 1.396639e+05 1.393221e+05 1.389321e+05 1.385976e+05 1.382806e+05 1.379226e+05 1.374965e+05 1.371652e+05 1.367507e+05 1.363705e+05 1.359030e+05 1.354210e+05 1.350972e+05 1.346775e+05 1.342363e+05 1.337176e+05 1.333084e+05 1.328550e+05 1.323745e+05 1.319405e+05 1.314097e+05 1.308990e+05 1.304402e+05 1.299785e+05 1.294862e+05 1.288620e+05 1.284084e+05 1.279416e+05 1.274385e+05 1.270062e+05 1.264207e+05 1.256427e+05 1.250690e+05 1.244213e+05 1.239270e+05 1.233852e+05 1.228277e+05 1.222816e+05 1.217218e+05 1.210990e+05 1.205475e+05 1.199794e+05 1.193597e+05 1.186746e+05 1.181162e+05 1.175423e+05 1.169608e+05 1.162997e+05 1.157007e+05 1.150943e+05 1.144940e+05 1.138218e+05 1.132294e+05 1.125619e+05 1.119257e+05 1.112746e+05 1.107072e+05 1.099770e+05 1.093140e+05 1.086671e+05 1.079960e+05 1.073954e+05 1.067747e+05 1.061521e+05 1.055246e+05 1.048191e+05 1.041574e+05 1.035215e+05 1.028757e+05 1.021369e+05 1.016092e+05 1.009728e+05 1.003969e+05 9.972449e+04 9.909814e+04 9.849137e+04 9.773600e+04 9.713581e+04 9.652358e+04 9.596528e+04 9.524858e+04 9.464327e+04 9.404586e+04 9.344290e+04 9.279708e+04 9.219465e+04 9.161813e+04 9.104328e+04 9.045550e+04 8.987519e+04 8.919593e+04 8.860091e+04 8.793878e+04 8.735198e+04 8.681523e+04 8.622258e+04 8.564575e+04 8.511307e+04 8.456266e+04 8.399097e+04 8.343509e+04 8.290359e+04 8.232404e+04 8.184684e+04 8.127991e+04 8.072901e+04 8.024754e+04 7.977297e+04 7.913764e+04 7.868962e+04 7.822162e+04 7.781001e+04 7.727137e+04 7.679470e+04 7.640097e+04 7.586468e+04 7.547690e+04 7.507197e+04 7.453892e+04 7.414778e+04 7.371739e+04 7.327021e+04 7.289867e+04 7.251204e+04 7.209705e+04 7.169169e+04 7.139107e+04 7.105439e+04 7.062779e+04 7.026819e+04 6.994407e+04 6.958059e+04 6.927981e+04 6.901391e+04 6.859202e+04 6.831929e+04 6.802613e+04 6.776880e+04 6.745648e+04 6.721600e+04 6.694174e+04 6.669162e+04 6.648632e+04 6.628589e+04 6.610092e+04 6.589944e+04 6.574163e+04 6.547521e+04 6.530135e+04 6.513035e+04 6.498721e+04 6.487208e+04 6.469417e+04 6.457873e+04 6.445450e+04 6.431922e+04 6.423142e+04 6.417206e+04 1.025573e+05 1.025573e+05 1.025573e+05 1.041946e+05 1.041946e+05 1.041946e+05 1.045884e+05 1.042627e+05 1.063514e+05 1.052152e+05 1.086221e+05 1.086221e+05 1.086221e+05 1.085624e+05 9.655066e+04 9.655066e+04 9.655066e+04 9.648181e+04 9.714128e+04 1.316012e+05 1.316012e+05 1.316012e+05 1.315134e+05 1.311714e+05 1.311714e+05 1.311714e+05 1.303576e+05 9.937995e+04 9.937995e+04 9.937995e+04 1.000230e+05 1.005671e+05 1.005429e+05 7.877651e+04 7.877651e+04 7.877651e+04 7.780710e+04 7.780710e+04 1.302715e+05 1.302715e+05 1.302715e+05 1.297093e+05 7.297403e+04 7.297403e+04 7.297403e+04 7.208305e+04 7.208305e+04 1.426157e+05 1.426157e+05 1.426157e+05 1.136719e+05 1.136719e+05 1.136719e+05 1.140598e+05 1.075915e+05 1.075915e+05 1.075915e+05 1.279366e+05 1.279366e+05 1.279366e+05 1.280517e+05 8.021165e+04 8.021165e+04 8.027378e+04 8.027378e+04 1.159239e+05 1.159239e+05 1.164051e+05 1.288690e+05 1.288690e+05 1.288690e+05 1.294738e+05 1.294738e+05 6.866080e+04 6.866080e+04 6.866080e+04 6.948834e+04 6.948834e+04 9.907502e+04 9.907502e+04 9.907502e+04 9.813158e+04 9.813158e+04 1.325734e+05 1.325734e+05 1.167711e+05 1.167711e+05 1.167711e+05 1.169172e+05 1.077107e+05 1.077107e+05 1.077107e+05 1.074458e+05 1.075048e+05 1.181158e+05 1.181158e+05 1.181158e+05 1.146336e+05 1.146336e+05 1.148770e+05 1.350972e+05 1.353302e+05 1.353302e+05 6.498721e+04 6.549182e+04 6.549182e+04 1.070665e+05 8.290359e+04 8.332472e+04 1.076107e+05 1.039746e+05 1.039746e+05 1.039746e+05 1.045851e+05 9.869570e+04 1.039347e+05 1.039347e+05 1.039347e+05 1.049986e+05 1.049986e+05 9.551479e+04 9.551479e+04 9.551479e+04 9.640339e+04 8.828871e+04 8.828871e+04 8.828871e+04 8.811463e+04 1.304833e+05 1.302634e+05 1.292980e+05 1.325512e+05 1.325512e+05 1.054525e+05 1.054525e+05 1.054525e+05 1.060460e+05 1.205375e+05 1.205375e+05 1.205375e+05 1.212723e+05 1.212723e+05 1.205852e+05 8.408783e+04 8.408783e+04 8.408783e+04 8.368108e+04 8.822533e+04 8.822533e+04 8.822533e+04 8.901437e+04 8.947464e+04 1.155489e+05 1.155489e+05 1.155489e+05 1.156161e+05 7.129835e+04 6.927617e+04 9.470785e+04 9.470785e+04 9.470785e+04 9.543980e+04 7.960476e+04 7.960476e+04 7.960476e+04 7.987104e+04 1.253853e+05 1.253853e+05 1.253853e+05 1.263066e+05 1.263066e+05 7.541668e+04 7.541668e+04 7.541668e+04 7.580949e+04 1.250785e+05 1.250785e+05 1.250785e+05 1.248031e+05 1.303745e+05 1.303745e+05 1.303745e+05 1.303474e+05 8.410853e+04 8.410853e+04 8.404484e+04 1.082053e+05 1.082053e+05 1.098910e+05 1.098910e+05 1.098910e+05 1.046851e+05 1.046851e+05 1.046851e+05 1.043990e+05 6.528455e+04 6.528455e+04 6.528455e+04 6.519631e+04 6.519631e+04 1.391219e+05 1.391219e+05 1.391219e+05 1.387396e+05 1.387396e+05 1.086393e+05 1.240468e+05 1.240468e+05 1.244293e+05 6.474206e+04 6.474206e+04 6.474206e+04 6.467739e+04 6.991763e+04 6.991763e+04 7.032885e+04 7.032885e+04 1.333620e+05 1.333620e+05 1.336653e+05 1.288173e+05 1.288173e+05 6.834729e+04 6.834729e+04 6.873827e+04 6.873827e+04 1.268380e+05 1.268380e+05 1.268380e+05 1.265616e+05 1.072210e+05 1.068506e+05 1.155644e+05 1.155644e+05 1.155644e+05 1.151736e+05 1.195270e+05 1.195270e+05 1.195270e+05 1.188187e+05 1.188187e+05 6.704853e+04 6.704853e+04 6.704853e+04 6.704872e+04 6.704872e+04 1.171140e+05 1.177401e+05 1.420277e+05 1.420277e+05 1.420277e+05 1.419271e+05 7.129378e+04 7.129378e+04 7.129378e+04 7.056072e+04 7.056072e+04 7.137261e+04 7.164212e+04 1.090604e+05 1.090604e+05 1.090604e+05 1.084149e+05 1.084149e+05 1.011209e+05 1.013808e+05 1.013808e+05 8.071735e+04 8.071735e+04 8.071735e+04 8.102816e+04 8.102816e+04 8.405835e+04 8.405835e+04 8.405835e+04 8.351385e+04 8.351385e+04 7.411246e+04 7.411246e+04 