<?xml version="1.0"?>
 <VTKFile type="UnstructuredGrid" version="1.0" byte_order="LittleEndian" header_type="UInt64">
  <UnstructuredGrid>
    <FieldData>
     <DataArray type="Float64" Name="TimeValue" NumberOfTuples="1" format="ascii">
2e-08
     </DataArray>
    </FieldData>
   <Piece NumberOfPoints="3662" NumberOfCells="3444">
    <PointData>
     <DataArray type="Float64" Name="pointP" format="ascii">
1.000000e-200 1.000000e-200 1.000000e-200 1.000000e-200 1.000000e-200 1.000000e-200 1.000000e-200 1.000000e-200 1.000000e-200 1.000000e-200 1.000000e-200 1.000000e-200 1.000000e-200 1.000000e-200 1.000000e-200 1.000000e+10 1.000000e+10 1.000000e+10 1.000000e-200 1.000000e-200 1.000000e-200 1.000000e-200 1.000000e-200 1.000000e-200 1.000000e-200 1.000000e-200 1.000000e-200 1.000000e-200 1.000000e-200 1.000000e-200 1.000000e-200 1.000000e-200 1.000000e-200 1.000000e-200 1.000000e-200 1.000000e-200 1.000000e-200 1.000000e-200 1.000000e-200 1.000000e-200 1.000000e-200 1.000000e-200 1.000000e-200 1.000000e-200 1.000000e-200 1.000000e-200 1.000000e-200 1.000000e-200 1.000000e-200 1.000000e-200 1.000000e-200 1.000000e-200 1.000000e-200 1.000000e-200 1.000000e-200 1.000000e-200 1.000000e-200 1.000000e-200 1.000000e-200 1.000000e-200 1.000000e-200 1.000000e+10 1.000000e-200 1.000000e-200 1.000000e-200 1.000000e-200 1.000000e-200 1.000000e+10 1.000000e-200 1.000000e-200 1.000000e-200 1.000000e+10 1.000000e-200 1.000000e-200 1.000000e-200 1.000000e-200 1.000000e-200 1.000000e+10 1.000000e+10 1.000000e-200 1.000000e+10 1.000000e-200 1.000000e-200 1.000000e-200 1.000000e+10 1.000000e-200 1.000000e-200 1.000000e-200 1.000000e-200 1.000000e-200 1.000000e-200 1.000000e+10 1.000000e-200 1.000000e-200 1.000000e-200 1.000000e-200 1.000000e-200 1.000000e+10 1.000000e-200 1.000000e-200 1.000000e+10 1.000000e-200 1.000000e+10 1.000000e-200 1.000000e-200 1.000000e+10 1.000000e-200 1.000000e+10 1.000000e-200 1.000000e-200 1.000000e+10 1.000000e-200 1.000000e-200 1.000000e-200 1.000000e-200 1.000000e+10 1.000000e-200 1.000000e-200 1.000000e-200 1.000000e-200 1.000000e-200 1.000000e+10 1.000000e-200 1.000000e-200 1.000000e-200 1.000000e-200 1.000000e-200 1.000000e-200 1.000000e-200 1.000000e-200 1.000000e-200 1.000000e-200 1.000000e-200 1.000000e-200 1.000000e-200 1.000000e-200 1.000000e-200 1.000000e-200 1.000000e-200 1.000000e-200 1.000000e-200 1.000000e+10 1.000000e+10 1.000000e+10 1.000000e+10 1.000000e+10 1.000000e+10 1.000000e+10 1.000000e-200 1.000000e+10 1.000000e+10 1.000000e-200 1.000000e+10 1.000000e-200 1.000000e-200 1.000000e+10 1.000000e+10 1.000000e+10 1.000000e+10 1.000000e-200 1.000000e+10 1.000000e+10 1.000000e+10 1.000000e+10 1.000000e+10 1.000000e-200 1.000000e+10 1.000000e+10 1.000000e+10 1.000000e+10 1.000000e+10 1.000000e+10 1.000000e-200 1.000000e+10 1.000000e+10 1.000000e+10 1.000000e+10 1.000000e+10 1.000000e+10 1.000000e+10 1.000000e-200 1.000000e+10 1.000000e+10 1.000000e+10 1.000000e+10 1.000000e+10 1.000000e+10 1.000000e+10 1.684186e+09 1.684186e+09 6.031070e+09 6.031070e+09 6.031070e+09 1.000000e-200 8.977532e+09 1.000000e-200 1.000000e-200 1.000000e-200 1.000000e-200 1.000000e+10 1.000000e+10 1.000000e+10 1.000000e+10 5.095948e+09 1.000000e+10 1.000000e+10 1.000000e+10 1.000000e+10 4.548891e+08 4.548891e+08 4.548891e+08 1.572432e+08 1.000000e-200 1.000000e-200 1.000000e-200 1.000000e-200 1.000000e-200 1.000000e-200 1.000000e-200 1.000000e-200 1.000000e-200 1.000000e-200 1.000000e-200 1.000000e-200 1.000000e-200 1.000000e-200 1.000000e-200 1.000000e-200 1.000000e-200 1.000000e-200 1.000000e+10 1.000000e-200 1.000000e+10 1.000000e-200 1.000000e-200 1.000000e-200 1.000000e-200 1.000000e-200 1.000000e+10 1.000000e+10 1.000000e+10 1.000000e+10 1.000000e+10 1.000000e+10 1.000000e+10 1.000000e+10 1.000000e+10 1.000000e+10 1.000000e+10 1.000000e+10 1.000000e-200 1.000000e+10 1.000000e+10 1.000000e-200 1.000000e-200 1.000000e-200 1.000000e-200 1.000000e+10 1.000000e+10 1.000000e+10 1.000000e+10 1.000000e-200 1.000000e-200 1.000000e-200 1.000000e-200 1.000000e-200 1.000000e-200 1.000000e-200 1.000000e-200 1.000000e+10 1.000000e-200 1.000000e-200 1.000000e-200 1.000000e+10 1.000000e+10 1.000000e+10 1.000000e+10 1.000000e+10 1.000000e+10 1.000000e+10 1.000000e+10 1.000000e+10 1.000000e-200 1.000000e-200 1.000000e-200 1.000000e-200 1.000000e-200 1.000000e-200 1.000000e-200 1.000000e-200 1.000000e-200 1.000000e-200 1.000000e-200 1.000000e-200 1.000000e-200 1.000000e+10 1.000000e+10 1.000000e+10 1.000000e-200 1.000000e-200 1.000000e-200 1.000000e-200 1.000000e-200 1.000000e-200 1.000000e-200 1.000000e-200 1.000000e-200 1.000000e+10 1.000000e+10 1.000000e+10 1.000000e-200 1.000000e+10 1.000000e+10 1.000000e+10 1.000000e+10 1.000000e+10 1.000000e+10 1.000000e+10 1.000000e+10 1.000000e+10 1.000000e+10 1.000000e+10 1.000000e+10 1.000000e+10 1.000000e+10 1.000000e-200 1.000000e-200 1.000000e-200 1.000000e-200 1.000000e-200 1.000000e-200 1.000000e-200 1.000000e-200 1.000000e-200 1.000000e+10 1.000000e+10 1.000000e+10 1.000000e+10 1.000000e+10 1.000000e+10 1.000000e+10 1.000000e-200 1.000000e-200 1.000000e-200 1.000000e+10 1.000000e-200 1.000000e+10 1.000000e-200 1.000000e-200 1.000000e-200 1.000000e-200 1.000000e-200 1.000000e-200 1.000000e-200 1.000000e-200 1.000000e+10 1.000000e+10 1.000000e+10 1.000000e+10 1.000000e+10 1.000000e+10 1.000000e+10 1.000000e+10 1.000000e+10 5.759757e+09 5.759757e+09 1.000000e-200 1.000000e-200 1.000000e-200 1.676605e+09 1.000000e+10 1.000000e+10 1.000000e+10 1.000000e-200 1.000000e-200 1.000000e-200 1.000000e-200 1.000000e-200 1.000000e-200 1.000000e-200 1.000000e+10 1.000000e-200 1.000000e-200 1.000000e-200 1.000000e-200 1.000000e-200 1.000000e-200 1.000000e+10 1.000000e+10 1.000000e+10 1.000000e+10 1.000000e+10 1.000000e+10 1.000000e+10 1.000000e+10 1.000000e+10 1.000000e-200 1.000000e-200 1.000000e+10 1.000000e+10 1.000000e+10 1.000000e-200 1.000000e-200 1.000000e+10 1.000000e-200 1.000000e-200 1.000000e-200 1.000000e+10 1.000000e-200 1.000000e-200 1.000000e-200 1.000000e-200 1.000000e-200 1.000000e-200 1.000000e+10 1.000000e+10 1.000000e+10 1.000000e+10 1.000000e+10 1.000000e+10 1.000000e+10 1.000000e+10 1.000000e+10 1.000000e+10 1.000000e+10 1.000000e+10 1.000000e+10 1.000000e+10 1.000000e+10 1.000000e+10 1.000000e+10 1.000000e+10 1.000000e+10 1.000000e-200 1.000000e-200 1.000000e-200 1.000000e+10 1.000000e+10 1.000000e+10 1.000000e+10 1.000000e+10 1.000000e-200 1.000000e-200 1.000000e-200 1.000000e+10 1.000000e+10 1.000000e+10 1.000000e+10 1.000000e-200 1.000000e-200 1.000000e-200 1.000000e-200 1.000000e-200 1.000000e-200 1.000000e-200 1.000000e-200 1.000000e-200 1.000000e-200 1.000000e-200 1.000000e+10 1.000000e+10 1.000000e-200 1.000000e-200 1.000000e-200 1.000000e+10 1.000000e+10 1.000000e+10 1.000000e+10 1.000000e-200 1.000000e-200 1.000000e-200 1.000000e-200 1.000000e-200 1.000000e-200 1.000000e-200 1.000000e+10 1.000000e+10 1.000000e-200 1.000000e+10 1.000000e-200 1.000000e-200 1.000000e-200 1.000000e-200 1.000000e+10 1.000000e+10 1.000000e+10 1.000000e+10 1.000000e-200 1.000000e-200 1.000000e-200 1.000000e-200 1.000000e-200 1.000000e-200 1.000000e+10 1.000000e+10 1.000000e+10 1.000000e+10 1.000000e+10 1.000000e+10 1.000000e+10 1.000000e+10 1.000000e+10 1.000000e-200 1.000000e-200 1.000000e-200 1.000000e-200 1.000000e-200 1.000000e+10 1.000000e+10 1.000000e+10 1.000000e+10 1.000000e+10 1.000000e+10 1.000000e+10 1.000000e+10 1.000000e+10 1.000000e+10 1.000000e+10 1.000000e+10 1.000000e-200 1.000000e-200 1.000000e-200 1.000000e-200 1.000000e+10 1.000000e+10 1.000000e+10 1.000000e-200 1.000000e-200 1.000000e+10 1.000000e+10 1.000000e+10 1.000000e-200 1.000000e-200 1.000000e-200 1.000000e-200 1.000000e-200 1.000000e+10 1.000000e+10 1.000000e-200 1.000000e-200 1.000000e-200 1.000000e+10 1.000000e+10 1.000000e+10 1.000000e+10 1.000000e+10 1.000000e+10 1.000000e+10 1.000000e+10 1.000000e+10 1.000000e+10 1.000000e+10 1.000000e+10 1.000000e+10 1.000000e-200 1.000000e-200 1.000000e-200 1.000000e+10 1.000000e+10 1.000000e-200 1.000000e-200 1.000000e-200 1.000000e+10 1.000000e+10 1.000000e+10 1.000000e+10 1.000000e-200 1.000000e-200 1.000000e+10 1.000000e+10 1.000000e-200 1.000000e-200 1.000000e+10 1.000000e+10 1.000000e+10 1.000000e+10 1.000000e+10 1.000000e+10 1.000000e-200 1.000000e-200 3.470772e+09 3.470772e+09 1.000000e+10 1.000000e+10 1.000000e+10 1.000000e+10 1.000000e+10 1.000000e+10 1.000000e+10 1.000000e-200 1.000000e-200 1.000000e-200 1.000000e-200 1.000000e-200 1.000000e+10 1.000000e+10 1.000000e+10 1.000000e-200 1.000000e+10 1.000000e-200 1.000000e-200 1.000000e-200 1.000000e-200 1.000000e+10 1.000000e+10 1.000000e+10 1.000000e-200 1.000000e-200 1.000000e-200 1.000000e-200 1.000000e-200 1.000000e-200 1.000000e+10 1.000000e+10 1.000000e-200 1.000000e-200 1.000000e-200 1.000000e+10 1.000000e+10 1.000000e+10 1.000000e+10 1.000000e-200 1.000000e-200 1.000000e-200 1.000000e-200 1.000000e-200 1.000000e-200 1.000000e-200 1.000000e-200 1.000000e-200 1.000000e-200 1.000000e-200 1.000000e-200 1.000000e-200 1.000000e+10 1.000000e+10 1.000000e+10 1.000000e-200 1.000000e+10 1.000000e+10 1.000000e-200 1.000000e-200 1.000000e+10 1.000000e+10 1.000000e-200 1.000000e-200 1.000000e-200 1.000000e-200 1.000000e-200 1.000000e-200 1.000000e-200 1.000000e+10 1.000000e+10 1.000000e-200 1.000000e-200 1.000000e-200 1.000000e+10 1.000000e-200 1.000000e-200 1.000000e+10 1.000000e+10 1.000000e+10 1.000000e+10 1.000000e+10 1.000000e+10 1.000000e+10 1.000000e-200 1.000000e-200 1.000000e-200 1.000000e+10 1.000000e-200 1.000000e-200 1.000000e-200 1.000000e-200 1.000000e-200 1.000000e-200 1.000000e+10 1.000000e+10 1.000000e-200 1.000000e-200 1.000000e+10 1.000000e+10 1.000000e+10 1.000000e+10 1.000000e+10 1.000000e+10 1.000000e+10 1.000000e-200 1.000000e-200 1.000000e+10 1.000000e-200 1.000000e-200 1.000000e-200 1.000000e-200 1.000000e+10 1.000000e+10 1.000000e-200 1.000000e-200 1.000000e-200 1.000000e-200 1.000000e+10 1.000000e+10 1.000000e+10 1.000000e+10 1.000000e-200 1.000000e-200 1.000000e-200 1.000000e-200 1.000000e+10 1.000000e+10 1.000000e-200 1.000000e+10 1.000000e+10 1.000000e+10 1.000000e+10 1.000000e+10 1.000000e+10 1.000000e+10 1.000000e+10 1.000000e+10 1.000000e-200 1.000000e+10 1.000000e+10 1.000000e+10 1.000000e+10 1.000000e-200 1.000000e-200 1.000000e-200 1.000000e-200 1.000000e-200 1.000000e+10 1.000000e-200 1.000000e-200 1.000000e-200 1.000000e-200 1.000000e-200 1.000000e+10 1.000000e+10 1.000000e-200 1.000000e-200 1.000000e+10 1.000000e-200 1.000000e-200 1.000000e-200 1.000000e+10 1.000000e-200 1.000000e+10 1.000000e-200 1.000000e-200 1.000000e-200 1.000000e-200 8.093515e+09 8.093515e+09 1.000000e+10 1.000000e+10 1.000000e+10 1.000000e+10 1.000000e+10 1.000000e+10 1.000000e+10 1.000000e-200 1.000000e-200 1.000000e+10 1.000000e-200 1.000000e+10 1.000000e+10 1.000000e-200 1.000000e-200 1.000000e-200 1.000000e+10 1.000000e+10 1.000000e-200 1.000000e-200 1.000000e-200 1.000000e-200 1.000000e+10 1.000000e-200 1.000000e-200 1.000000e+10 1.000000e+10 1.000000e+10 1.000000e-200 1.000000e-200 1.000000e+10 1.000000e+10 1.000000e-200 1.000000e-200 1.000000e-200 1.000000e-200 1.000000e-200 1.000000e-200 1.000000e-200 1.000000e+10 1.000000e+10 1.000000e+10 1.000000e-200 1.000000e-200 1.000000e+10 1.000000e+10 1.000000e+10 1.000000e+10 1.000000e+10 1.000000e+10 1.000000e-200 1.000000e+10 1.000000e+10 1.000000e-200 1.000000e+10 1.000000e+10 1.000000e+10 1.000000e-200 1.000000e-200 1.000000e-200 1.000000e-200 1.000000e-200 1.000000e-200 1.000000e-200 1.000000e-200 1.000000e-200 1.000000e+10 1.000000e+10 1.000000e-200 1.000000e-200 1.000000e-200 1.000000e+10 1.000000e+10 1.000000e+10 1.000000e+10 1.000000e+10 1.000000e+10 1.000000e+10 1.000000e-200 1.000000e+10 1.000000e-200 1.000000e-200 1.000000e+10 1.000000e+10 1.000000e-200 1.000000e-200 1.000000e+10 1.000000e-200 1.000000e-200 1.000000e-200 1.000000e-200 1.000000e-200 1.000000e-200 1.000000e-200 1.000000e-200 1.000000e-200 1.000000e+10 1.000000e+10 1.000000e+10 1.000000e+10 1.000000e-200 1.000000e-200 1.000000e-200 1.000000e+10 1.000000e+10 1.000000e+10 1.000000e-200 1.000000e-200 1.000000e+10 1.000000e+10 1.000000e+10 1.000000e-200 1.000000e+10 1.000000e+10 1.000000e+10 1.000000e+10 1.000000e+10 1.000000e+10 1.000000e-200 1.000000e-200 1.000000e+10 1.000000e+10 1.000000e-200 1.000000e-200 1.000000e+10 1.000000e+10 1.000000e+10 1.000000e+10 1.000000e-200 1.000000e-200 1.000000e-200 1.000000e-200 1.000000e-200 1.000000e-200 1.000000e-200 1.000000e+10 1.000000e-200 1.000000e-200 1.000000e-200 1.000000e+10 1.000000e+10 1.000000e-200 1.000000e+10 1.000000e+10 1.000000e-200 1.000000e+10 1.000000e+10 1.000000e+10 1.000000e+10 1.000000e-200 1.000000e+10 1.000000e-200 1.000000e-200 1.000000e-200 1.000000e+10 1.000000e-200 1.000000e-200 1.000000e+10 1.000000e+10 1.000000e-200 1.000000e-200 1.000000e-200 1.000000e-200 1.000000e-200 1.000000e-200 1.000000e-200 1.000000e-200 1.000000e+10 1.000000e+10 1.000000e+10 1.000000e+10 1.000000e-200 1.000000e+10 1.000000e+10 1.000000e+10 1.000000e+10 1.000000e+10 1.000000e+10 1.000000e+10 1.000000e+10 1.000000e+10 1.000000e+10 1.000000e-200 1.000000e-200 1.000000e-200 1.000000e-200 1.000000e-200 1.000000e+10 1.000000e+10 1.000000e+10 1.000000e-200 1.000000e+10 1.000000e+10 1.000000e+10 1.000000e+10 1.000000e-200 1.000000e-200 1.000000e-200 1.000000e-200 1.000000e+10 1.000000e+10 1.000000e-200 1.000000e-200 1.000000e-200 1.000000e-200 1.000000e+10 1.000000e-200 1.000000e-200 1.000000e+10 1.000000e+10 1.000000e+10 1.000000e-200 1.000000e+10 1.000000e-200 1.000000e+10 1.000000e+10 1.000000e-200 1.000000e+10 1.000000e+10 1.000000e+10 1.000000e+10 1.000000e+10 1.000000e+10 1.000000e-200 1.000000e-200 1.000000e+10 1.000000e+10 1.000000e+10 1.000000e+10 1.000000e+10 1.000000e+10 1.000000e+10 1.000000e+10 1.000000e+10 1.000000e+10 1.000000e-200 1.000000e-200 1.000000e+10 1.000000e+10 1.000000e-200 1.000000e-200 1.000000e-200 1.000000e+10 1.000000e-200 1.000000e-200 1.000000e+10 1.000000e-200 1.000000e+10 1.000000e+10 1.000000e+10 1.000000e-200 1.000000e-200 1.000000e-200 1.000000e+10 1.000000e+10 1.000000e+10 1.000000e+10 1.000000e-200 1.000000e+10 1.000000e-200 1.000000e-200 1.000000e-200 1.000000e-200 1.000000e-200 1.000000e+10 1.000000e+10 1.000000e+10 1.000000e-200 1.000000e-200 1.000000e-200 1.000000e+10 1.000000e+10 1.000000e-200 1.000000e-200 1.000000e+10 1.000000e+10 1.000000e-200 1.000000e-200 1.000000e-200 1.000000e-200 1.000000e-200 1.000000e-200 1.000000e-200 1.000000e+10 1.000000e+10 1.000000e+10 1.000000e-200 1.000000e+10 1.000000e+10 1.000000e-200 1.000000e-200 1.000000e+10 1.000000e+10 1.000000e+10 1.000000e+10 1.000000e+10 1.000000e+10 1.000000e+10 1.000000e+10 1.000000e+10 1.000000e+10 1.000000e+10 1.000000e+10 1.000000e-200 1.000000e-200 1.000000e-200 1.000000e+10 1.000000e+10 1.000000e-200 1.000000e+10 1.000000e+10 1.000000e-200 1.000000e+10 1.000000e-200 1.000000e-200 1.000000e-200 1.000000e+10 1.000000e+10 1.000000e+10 1.000000e+10 1.000000e+10 1.000000e-200 1.000000e+10 1.000000e-200 1.000000e+10 1.000000e+10 1.000000e+10 1.000000e+10 1.000000e-200 1.000000e+10 1.000000e+10 1.000000e+10 1.000000e-200 1.000000e-200 1.000000e-200 1.000000e+10 1.000000e-200 1.000000e-200 1.000000e-200 1.000000e-200 1.000000e+10 1.000000e+10 1.000000e+10 1.000000e+10 1.000000e+10 1.000000e+10 1.000000e+10 1.000000e+10 1.000000e+10 1.000000e-200 1.000000e-200 1.000000e-200 1.000000e-200 1.000000e-200 1.000000e-200 1.000000e-200 1.000000e-200 1.000000e+10 1.000000e+10 1.000000e+10 1.000000e-200 1.000000e+10 1.000000e+10 1.000000e+10 1.000000e-200 1.000000e+10 1.000000e-200 1.000000e+10 1.000000e+10 1.000000e+10 1.000000e-200 1.000000e-200 1.000000e+10 1.000000e+10 1.000000e+10 1.000000e-200 1.000000e-200 1.000000e-200 1.000000e-200 1.000000e-200 1.000000e-200 1.000000e+10 1.000000e+10 1.000000e-200 1.000000e+10 1.000000e+10 1.000000e+10 1.000000e-200 1.000000e-200 1.000000e-200 1.000000e+10 1.000000e-200 1.000000e-200 1.000000e-200 1.000000e+10 1.000000e+10 1.000000e+10 1.000000e+10 1.000000e+10 1.000000e-200 1.000000e+10 1.000000e-200 1.000000e-200 1.000000e+10 1.000000e+10 1.000000e+10 1.000000e-200 1.000000e-200 1.000000e-200 1.000000e+10 1.000000e+10 1.000000e+10 1.000000e+10 1.000000e+10 1.000000e+10 1.000000e+10 1.000000e+10 1.000000e+10 1.000000e+10 1.000000e+10 1.000000e-200 1.000000e+10 1.000000e+10 1.000000e-200 1.000000e+10 1.000000e-200 1.000000e+10 1.000000e-200 1.000000e+10 1.000000e+10 1.000000e+10 1.000000e+10 1.000000e+10 1.000000e+10 1.000000e-200 1.000000e-200 1.000000e-200 1.000000e+10 1.000000e-200 1.000000e-200 1.000000e-200 1.000000e+10 1.000000e-200 1.000000e-200 1.000000e+10 1.000000e+10 1.000000e+10 1.000000e-200 1.000000e+10 1.000000e+10 1.000000e+10 1.000000e-200 1.000000e+10 1.000000e+10 1.000000e-200 1.000000e-200 1.000000e-200 1.000000e-200 1.000000e+10 1.000000e-200 1.000000e+10 1.000000e+10 1.000000e-200 1.000000e-200 1.000000e-200 1.000000e-200 1.000000e-200 1.000000e-200 1.000000e+10 1.000000e+10 1.000000e+10 1.000000e+10 1.000000e+10 1.000000e+10 1.000000e-200 1.000000e-200 1.000000e+10 1.000000e+10 1.000000e-200 1.000000e-200 1.000000e-200 1.000000e+10 1.000000e+10 1.000000e+10 1.000000e+10 1.000000e-200 1.000000e-200 1.000000e-200 1.000000e+10 1.000000e+10 1.000000e+10 1.000000e-200 1.000000e-200 1.000000e-200 1.000000e-200 1.000000e-200 1.000000e+10 1.000000e+10 1.000000e+10 1.000000e+10 1.000000e+10 1.000000e-200 1.000000e-200 1.000000e-200 1.000000e-200 1.000000e-200 1.000000e-200 1.000000e-200 1.000000e-200 1.000000e-200 1.000000e-200 1.000000e+10 1.000000e+10 4.792923e+08 1.000000e-200 1.000000e-200 1.000000e+10 1.000000e+10 1.000000e+10 1.000000e+10 1.000000e-200 1.000000e-200 1.000000e-200 1.000000e-200 1.000000e+10 1.000000e+10 1.000000e-200 1.000000e-200 1.000000e-200 1.000000e-200 1.000000e-200 1.000000e+10 1.000000e+10 1.000000e+10 1.000000e+10 1.000000e+10 1.000000e+10 1.000000e+10 1.000000e+10 1.000000e+10 1.000000e-200 1.000000e-200 1.000000e+10 1.000000e+10 1.000000e-200 1.000000e+10 1.000000e+10 1.000000e-200 1.000000e+10 1.000000e-200 1.000000e+10 1.000000e+10 1.000000e-200 1.000000e+10 1.000000e+10 1.000000e+10 1.000000e+10 1.000000e+10 1.000000e+10 1.000000e+10 1.000000e-200 1.000000e+10 1.000000e-200 1.000000e+10 1.000000e+10 1.000000e-200 1.000000e+10 1.000000e+10 1.000000e+10 1.000000e-200 9.748268e+07 8.270592e+09 1.000000e-200 1.000000e-200 1.000000e-200 1.000000e-200 1.000000e-200 2.546836e+08 2.546836e+08 2.546836e+08 1.000000e-200 1.000000e-200 1.000000e-200 1.000000e-200 1.000000e-200 1.000000e+10 1.000000e-200 7.198891e+09 1.000000e+10 1.000000e+10 1.000000e-200 1.000000e-200 9.238630e+09 9.238630e+09 4.335209e+09 1.000000e-200 1.000000e-200 1.000000e-200 1.000000e-200 1.000000e-200 1.000000e-200 1.000000e-200 1.000000e-200 1.000000e-200 1.000000e-200 1.000000e-200 1.000000e-200 1.000000e-200 1.000000e-200 1.000000e-200 1.000000e-200 1.000000e-200 1.000000e-200 1.000000e-200 1.000000e-200 1.000000e-200 1.000000e+10 1.000000e+10 1.000000e-200 1.000000e-200 1.000000e+10 1.000000e+10 1.000000e+10 1.000000e+10 1.000000e-200 1.000000e-200 1.000000e-200 1.000000e-200 1.000000e-200 1.000000e+10 1.000000e+10 1.000000e+10 1.000000e+10 1.000000e+10 1.000000e+10 1.000000e+10 1.000000e+10 1.000000e+10 1.000000e+10 1.000000e+10 1.000000e+10 1.000000e+10 1.000000e+10 1.000000e+10 1.000000e-200 1.000000e+10 1.000000e-200 1.000000e-200 1.000000e-200 1.000000e+10 1.000000e+10 1.000000e+10 1.000000e+10 1.000000e+10 1.000000e+10 1.000000e+10 1.000000e+10 1.000000e+10 1.000000e+10 1.000000e+10 1.000000e+10 1.000000e+10 1.000000e+10 1.000000e+10 1.000000e+10 1.000000e+10 1.000000e+10 1.407217e+09 1.000000e+10 1.000000e+10 1.267776e+09 1.000000e-200 1.000000e+10 1.000000e+10 1.000000e-200 1.000000e-200 1.000000e-200 1.000000e-200 1.000000e+10 1.000000e-200 1.000000e-200 1.000000e+10 1.000000e+10 1.000000e+10 1.000000e+10 1.000000e-200 1.000000e-200 1.000000e+10 1.000000e+10 1.000000e+10 1.000000e-200 1.000000e+10 1.000000e-200 1.000000e+10 1.000000e+10 1.000000e-200 1.000000e-200 1.000000e+10 1.000000e+10 1.000000e-200 1.000000e-200 1.000000e-200 1.000000e+10 1.000000e-200 1.000000e-200 1.000000e-200 1.000000e-200 1.000000e-200 1.000000e-200 1.000000e-200 1.000000e-200 1.000000e-200 1.000000e-200 1.000000e-200 4.468409e+09 4.468409e+09 1.000000e+10 1.000000e-200 1.000000e-200 1.000000e-200 1.000000e-200 1.000000e-200 1.037750e+09 1.000000e-200 1.000000e-200 1.000000e-200 1.000000e-200 1.000000e-200 1.000000e-200 1.000000e-200 1.000000e-200 1.000000e-200 1.000000e-200 1.000000e-200 1.000000e-200 1.000000e-200 1.000000e-200 1.000000e+10 1.000000e-200 1.000000e-200 1.000000e+10 1.000000e+10 1.000000e-200 1.000000e-200 1.000000e-200 1.000000e-200 1.000000e-200 1.000000e-200 1.000000e-200 1.000000e+10 1.000000e-200 1.000000e-200 1.000000e-200 1.000000e-200 1.000000e-200 1.000000e-200 1.887029e+08 1.000000e-200 1.000000e-200 1.000000e-200 3.132425e+09 3.946058e+08 1.000000e-200 1.000000e-200 1.000000e-200 1.000000e-200 1.000000e-200 1.000000e-200 1.000000e-200 1.000000e-200 1.000000e-200 1.000000e-200 1.000000e-200 1.000000e-200 1.000000e-200 1.000000e+10 1.000000e+10 1.000000e+10 1.000000e-200 1.000000e-200 1.000000e-200 1.000000e-200 1.000000e-200 1.000000e-200 1.000000e-200 1.000000e-200 1.000000e-200 1.000000e-200 1.000000e-200 1.000000e-200 1.000000e-200 1.000000e-200 1.000000e-200 1.000000e-200 1.000000e-200 1.000000e-200 1.000000e-200 1.000000e-200 1.000000e-200 1.000000e-200 1.000000e-200 1.000000e-200 1.000000e-200 1.000000e-200 1.000000e-200 4.419415e+09 4.419415e+09 4.419415e+09 1.000000e-200 1.000000e-200 1.000000e-200 1.000000e-200 1.000000e-200 1.000000e-200 1.000000e-200 1.000000e-200 1.000000e-200 1.000000e-200 1.000000e-200 1.000000e-200 1.000000e+10 1.000000e+10 1.000000e+10 1.000000e+10 1.000000e+10 1.000000e-200 1.000000e-200 1.000000e-200 1.000000e+10 1.000000e+10 1.000000e-200 1.000000e+10 1.000000e+10 1.000000e+10 1.000000e-200 1.000000e-200 1.000000e-200 1.000000e-200 1.000000e-200 2.931272e+09 1.000000e-200 1.000000e-200 1.000000e-200 1.000000e-200 1.000000e-200 1.000000e-200 1.000000e-200 1.000000e+10 1.000000e+10 1.000000e+10 1.000000e+10 1.000000e+10 1.000000e+10 1.000000e-200 1.000000e-200 1.000000e-200 1.000000e-200 1.000000e+10 1.000000e+10 1.000000e+10 1.000000e+10 1.000000e-200 1.000000e-200 1.000000e-200 1.000000e-200 1.000000e-200 1.000000e+10 1.000000e-200 1.000000e-200 1.000000e-200 1.000000e-200 1.000000e+10 1.000000e+10 1.000000e-200 1.000000e+10 1.000000e+10 1.000000e+10 1.000000e-200 1.000000e-200 1.000000e-200 1.000000e-200 1.000000e-200 1.000000e-200 1.000000e-200 1.000000e-200 1.000000e-200 1.000000e+10 1.000000e-200 1.000000e+10 1.000000e+10 1.000000e+10 1.000000e-200 1.000000e-200 1.000000e+10 1.000000e-200 1.000000e-200 1.000000e+10 1.000000e-200 1.000000e-200 1.000000e-200 1.000000e-200 1.000000e+10 1.000000e+10 1.000000e-200 1.000000e-200 1.000000e-200 1.000000e-200 1.000000e-200 1.000000e-200 1.000000e-200 1.000000e-200 1.000000e-200 1.446055e+08 1.446055e+08 1.446055e+08 5.157635e+09 1.000000e+10 1.000000e+10 1.000000e+10 5.108758e+09 1.000000e-200 1.000000e+10 1.000000e+10 1.000000e+10 1.000000e+10 1.000000e+10 1.000000e+10 1.000000e+10 1.000000e+10 1.000000e+10 1.000000e+10 1.000000e+10 1.000000e+10 1.000000e+10 1.000000e+10 1.000000e+10 1.000000e+10 1.000000e+10 1.000000e+10 1.000000e+10 1.000000e+10 1.000000e+10 1.000000e+10 6.736945e+09 6.736945e+09 6.736945e+09 1.000000e-200 1.000000e-200 1.000000e+10 1.000000e+10 1.000000e+10 1.000000e-200 1.000000e-200 1.000000e-200 1.000000e+10 1.000000e+10 1.000000e+10 1.000000e-200 1.000000e+10 1.000000e+10 1.000000e+10 1.000000e-200 1.000000e+10 1.000000e-200 1.000000e-200 1.000000e+10 1.000000e+10 1.000000e-200 1.000000e+10 1.000000e-200 1.000000e-200 1.000000e-200 1.000000e-200 1.000000e-200 1.000000e-200 1.000000e-200 1.000000e-200 1.000000e-200 1.000000e-200 1.000000e-200 1.000000e+10 1.000000e+10 1.000000e+10 1.000000e-200 1.000000e-200 1.000000e+10 1.000000e-200 1.000000e-200 1.000000e-200 1.000000e+10 1.000000e+10 1.000000e-200 1.000000e+10 1.000000e+10 1.000000e-200 1.000000e+10 1.000000e+10 1.000000e+10 1.000000e+10 1.000000e+10 1.000000e+10 1.000000e-200 1.000000e-200 1.000000e+10 1.000000e-200 4.892948e+09 1.000000e+10 1.000000e+10 1.000000e+10 1.000000e+10 3.434709e+09 3.434709e+09 7.760010e+09 2.859664e+09 2.859664e+09 1.000000e+10 1.000000e-200 2.931272e+09 1.000000e-200 1.000000e-200 1.000000e-200 1.000000e-200 1.000000e-200 1.000000e-200 1.000000e-200 1.000000e-200 1.000000e-200 1.000000e+10 1.000000e-200 1.000000e+10 1.000000e+10 1.000000e+10 1.000000e+10 1.000000e+10 1.000000e+10 1.000000e+10 1.000000e+10 1.000000e+10 1.000000e-200 1.000000e+10 1.000000e+10 1.000000e+10 1.000000e+10 1.000000e-200 1.000000e+10 1.000000e+10 1.000000e+10 1.000000e+10 1.000000e-200 1.000000e+10 1.000000e+10 1.000000e-200 1.000000e+10 2.749349e+09 1.065037e+09 1.000000e-200 1.000000e+10 1.000000e-200 1.000000e-200 1.000000e-200 1.000000e-200 1.000000e-200 1.000000e-200 1.000000e-200 1.000000e-200 1.000000e-200 1.000000e-200 1.000000e-200 1.000000e-200 1.000000e+10 1.000000e-200 1.000000e-200 1.000000e-200 1.000000e-200 1.000000e+10 1.000000e-200 1.000000e-200 1.000000e-200 1.000000e-200 1.000000e-200 1.000000e-200 1.000000e-200 1.000000e-200 1.000000e-200 1.000000e-200 1.000000e-200 1.000000e-200 1.000000e-200 1.000000e-200 1.000000e-200 1.000000e-200 1.000000e-200 1.000000e-200 1.000000e+10 1.000000e+10 1.000000e+10 1.000000e-200 1.000000e-200 1.000000e-200 1.000000e-200 1.000000e-200 1.000000e-200 1.000000e-200 1.000000e-200 1.000000e-200 1.000000e-200 1.000000e-200 1.000000e-200 1.000000e-200 1.000000e-200 1.000000e-200 1.000000e-200 1.000000e-200 1.000000e-200 1.000000e-200 1.000000e-200 1.000000e-200 1.000000e-200 1.000000e-200 1.000000e-200 1.000000e-200 1.000000e-200 1.000000e-200 1.000000e-200 1.000000e-200 1.000000e-200 1.000000e-200 1.000000e-200 1.000000e-200 1.000000e-200 1.000000e-200 1.000000e-200 1.000000e-200 1.000000e-200 1.000000e-200 1.000000e-200 1.000000e-200 1.000000e-200 1.000000e-200 1.000000e+10 1.000000e-200 1.000000e-200 1.000000e-200 1.000000e-200 1.000000e-200 1.000000e+10 1.000000e-200 1.000000e-200 1.000000e-200 1.000000e+10 1.000000e-200 1.000000e-200 1.000000e-200 1.000000e-200 1.000000e-200 1.000000e+10 1.000000e+10 1.000000e-200 1.000000e+10 1.000000e-200 1.000000e-200 1.000000e-200 1.000000e+10 1.000000e-200 1.000000e-200 1.000000e-200 1.000000e-200 1.000000e-200 1.000000e-200 1.000000e+10 1.000000e-200 1.000000e-200 1.000000e-200 1.000000e-200 1.000000e-200 1.000000e+10 1.000000e-200 1.000000e-200 1.000000e+10 1.000000e-200 1.000000e+10 1.000000e-200 1.000000e-200 1.000000e+10 1.000000e-200 1.000000e+10 1.000000e-200 1.000000e-200 1.000000e+10 1.000000e-200 1.000000e-200 1.000000e-200 1.000000e-200 1.000000e+10 1.000000e-200 1.000000e-200 1.000000e-200 1.000000e-200 1.000000e-200 1.000000e+10 1.000000e-200 1.000000e-200 1.000000e-200 1.000000e-200 1.000000e-200 1.000000e-200 1.000000e-200 1.000000e-200 1.000000e-200 1.000000e-200 1.000000e-200 1.000000e-200 1.000000e-200 1.000000e-200 1.000000e-200 1.000000e-200 1.000000e-200 1.000000e-200 1.000000e-200 1.000000e+10 1.000000e+10 1.000000e+10 1.000000e+10 1.000000e+10 1.000000e+10 1.000000e+10 1.000000e-200 1.000000e+10 1.000000e+10 1.000000e-200 1.000000e+10 1.000000e-200 1.000000e-200 1.000000e+10 1.000000e+10 1.000000e+10 1.000000e+10 1.000000e-200 1.000000e+10 1.000000e+10 1.000000e+10 1.000000e+10 1.000000e+10 1.000000e-200 1.000000e+10 1.000000e+10 1.000000e+10 1.000000e+10 1.000000e+10 1.000000e+10 1.000000e-200 1.000000e+10 1.000000e+10 1.000000e+10 1.000000e+10 1.000000e+10 1.000000e+10 1.000000e+10 1.000000e-200 1.000000e+10 1.000000e+10 1.000000e+10 1.000000e+10 1.000000e+10 1.000000e+10 1.000000e+10 1.684186e+09 1.684186e+09 6.031070e+09 6.031070e+09 6.031070e+09 1.000000e-200 8.977532e+09 1.000000e-200 1.000000e-200 1.000000e-200 1.000000e-200 1.000000e+10 1.000000e+10 1.000000e+10 1.000000e+10 5.095948e+09 1.000000e+10 1.000000e+10 1.000000e+10 1.000000e+10 4.548891e+08 4.548891e+08 4.548891e+08 1.572432e+08 1.000000e-200 1.000000e-200 1.000000e-200 1.000000e-200 1.000000e-200 1.000000e-200 1.000000e-200 1.000000e-200 1.000000e-200 1.000000e-200 1.000000e-200 1.000000e-200 1.000000e-200 1.000000e-200 1.000000e-200 1.000000e-200 1.000000e-200 1.000000e-200 1.000000e+10 1.000000e-200 1.000000e+10 1.000000e-200 1.000000e-200 1.000000e-200 1.000000e-200 1.000000e-200 1.000000e+10 1.000000e+10 1.000000e+10 1.000000e+10 1.000000e+10 1.000000e+10 1.000000e+10 1.000000e+10 1.000000e+10 1.000000e+10 1.000000e+10 1.000000e+10 1.000000e-200 1.000000e+10 1.000000e+10 1.000000e-200 1.000000e-200 1.000000e-200 1.000000e-200 1.000000e+10 1.000000e+10 1.000000e+10 1.000000e+10 1.000000e-200 1.000000e-200 1.000000e-200 1.000000e-200 1.000000e-200 1.000000e-200 1.000000e-200 1.000000e-200 1.000000e+10 1.000000e-200 1.000000e-200 1.000000e-200 1.000000e+10 1.000000e+10 1.000000e+10 1.000000e+10 1.000000e+10 1.000000e+10 1.000000e+10 1.000000e+10 1.000000e+10 1.000000e-200 1.000000e-200 1.000000e-200 1.000000e-200 1.000000e-200 1.000000e-200 1.000000e-200 1.000000e-200 1.000000e-200 1.000000e-200 1.000000e-200 1.000000e-200 1.000000e-200 1.000000e+10 1.000000e+10 1.000000e+10 1.000000e-200 1.000000e-200 1.000000e-200 1.000000e-200 1.000000e-200 1.000000e-200 1.000000e-200 1.000000e-200 1.000000e-200 1.000000e+10 1.000000e+10 1.000000e+10 1.000000e-200 1.000000e+10 1.000000e+10 1.000000e+10 1.000000e+10 1.000000e+10 1.000000e+10 1.000000e+10 1.000000e+10 1.000000e+10 1.000000e+10 1.000000e+10 1.000000e+10 1.000000e+10 1.000000e+10 1.000000e-200 1.000000e-200 1.000000e-200 1.000000e-200 1.000000e-200 1.000000e-200 1.000000e-200 1.000000e-200 1.000000e-200 1.000000e+10 1.000000e+10 1.000000e+10 1.000000e+10 1.000000e+10 1.000000e+10 1.000000e+10 1.000000e-200 1.000000e-200 1.000000e-200 1.000000e+10 1.000000e-200 1.000000e+10 1.000000e-200 1.000000e-200 1.000000e-200 1.000000e-200 1.000000e-200 1.000000e-200 1.000000e-200 1.000000e-2