<?xml version="1.0"?>
 <VTKFile type="UnstructuredGrid" version="1.0" byte_order="LittleEndian" header_type="UInt64">
  <UnstructuredGrid>
    <FieldData>
     <DataArray type="Float64" Name="TimeValue" NumberOfTuples="1" format="ascii">
6e-05
     </DataArray>
    </FieldData>
   <Piece NumberOfPoints="3662" NumberOfCells="3444">
    <PointData>
     <DataArray type="Float64" Name="pointP" format="ascii">
7.348049e+05 7.435881e+05 7.491337e+05 7.446639e+05 7.430604e+05 7.475373e+05 7.450009e+05 7.366620e+05 7.362917e+05 7.391592e+05 7.356421e+05 7.330050e+05 7.273771e+05 7.236461e+05 7.226767e+05 7.172285e+05 7.103814e+05 7.053197e+05 7.016373e+05 6.971814e+05 6.912109e+05 6.862590e+05 6.798013e+05 6.773927e+05 6.749837e+05 6.770403e+05 6.662131e+05 6.633857e+05 6.532225e+05 6.510879e+05 6.503770e+05 6.474483e+05 6.442019e+05 6.355762e+05 6.315586e+05 6.196694e+05 6.173928e+05 6.079227e+05 5.957589e+05 5.926648e+05 5.891426e+05 5.818516e+05 5.761344e+05 5.652508e+05 5.632054e+05 5.570334e+05 5.433408e+05 5.313380e+05 5.287046e+05 5.194576e+05 5.127150e+05 5.053866e+05 4.941915e+05 4.819009e+05 4.705855e+05 4.627229e+05 4.567248e+05 4.502730e+05 4.399384e+05 4.346165e+05 4.242429e+05 4.147172e+05 4.014750e+05 3.881840e+05 3.784778e+05 3.755037e+05 3.623817e+05 3.556858e+05 3.473803e+05 3.397486e+05 3.309580e+05 3.241172e+05 3.165958e+05 3.114819e+05 3.031119e+05 2.960032e+05 2.845674e+05 2.742226e+05 2.656872e+05 2.590980e+05 2.519724e+05 2.443644e+05 2.356756e+05 2.286314e+05 2.200899e+05 2.130408e+05 2.051771e+05 1.982777e+05 1.925553e+05 1.859992e+05 1.790533e+05 1.718556e+05 1.662017e+05 1.577410e+05 1.517165e+05 1.457080e+05 1.383897e+05 1.325578e+05 1.273465e+05 1.219998e+05 1.166421e+05 1.112443e+05 1.061508e+05 1.000230e+05 9.534526e+04 8.909514e+04 8.407972e+04 7.983589e+04 7.505609e+04 7.207396e+04 6.843758e+04 6.380974e+04 6.063775e+04 5.715044e+04 5.216096e+04 5.001416e+04 4.608750e+04 4.218648e+04 3.937557e+04 3.579230e+04 3.374111e+04 3.074770e+04 2.576471e+04 2.576471e+04 1.123163e+05 1.254222e+05 1.317506e+05 1.325018e+05 1.343392e+05 1.367590e+05 1.385584e+05 1.385584e+05 1.388358e+05 1.398280e+05 1.406092e+05 1.406092e+05 1.431607e+05 1.431607e+05 1.460573e+05 1.475571e+05 1.481791e+05 1.504052e+05 1.527649e+05 1.588759e+05 1.588759e+05 1.657795e+05 1.657795e+05 1.697001e+05 1.787330e+05 1.809580e+05 1.869579e+05 1.899446e+05 1.987276e+05 2.049501e+05 2.113264e+05 2.221842e+05 2.254056e+05 2.370961e+05 2.490524e+05 2.591630e+05 2.691919e+05 2.691919e+05 2.796619e+05 3.010360e+05 3.010360e+05 3.271752e+05 3.371706e+05 3.371706e+05 3.615058e+05 3.898748e+05 3.898748e+05 4.185359e+05 4.383403e+05 4.749388e+05 4.749388e+05 5.014364e+05 5.589113e+05 5.959303e+05 6.621610e+05 6.853527e+05 1.112702e+05 1.640880e+05 1.640880e+05 1.640880e+05 1.671552e+05 1.487173e+05 1.487173e+05 1.487173e+05 1.526855e+05 1.526855e+05 1.728606e+05 1.728606e+05 1.728606e+05 1.742393e+05 1.724239e+05 1.040946e+05 1.548570e+05 1.548570e+05 1.515323e+05 1.655358e+05 1.655358e+05 1.655358e+05 1.631507e+05 1.609724e+05 3.519584e+05 3.519584e+05 3.519584e+05 3.410555e+05 1.239726e+05 1.239726e+05 1.239726e+05 1.218790e+05 1.195053e+05 1.195053e+05 1.606088e+05 1.606088e+05 1.483453e+05 1.459161e+05 1.112702e+05 1.112702e+05 1.343627e+05 1.343627e+05 1.343627e+05 1.329663e+05 1.298329e+05 1.298329e+05 1.321462e+05 1.569987e+05 1.569987e+05 1.569987e+05 1.570617e+05 1.528442e+05 1.623345e+05 1.616958e+05 1.334968e+05 1.334968e+05 1.334968e+05 1.287096e+05 8.962063e+04 7.871101e+04 6.929351e+04 7.871101e+04 2.396408e+05 2.396408e+05 2.396408e+05 2.887655e+05 2.887655e+05 2.887655e+05 2.764181e+05 5.243009e+04 4.687698e+04 5.243009e+04 5.243009e+04 2.499859e+05 2.499859e+05 2.499859e+05 2.524127e+05 3.947394e+05 3.947394e+05 3.947394e+05 3.825683e+05 4.690523e+05 4.690523e+05 4.690523e+05 4.440105e+05 4.440105e+05 6.537965e+04 6.537965e+04 6.537965e+04 6.357432e+04 9.841794e+04 9.841794e+04 9.841794e+04 9.332715e+04 9.332715e+04 5.362039e+05 5.362039e+05 5.362039e+05 5.501596e+05 2.015525e+05 2.015525e+05 2.015525e+05 1.996306e+05 1.996306e+05 3.143764e+04 3.471272e+04 5.409941e+05 5.409941e+05 5.409941e+05 5.258654e+05 5.945133e+05 5.945133e+05 5.945133e+05 6.154530e+05 6.154530e+05 2.650755e+05 2.650755e+05 2.650755e+05 2.602672e+05 5.776556e+05 5.776556e+05 5.776556e+05 5.591180e+05 5.715044e+04 3.786549e+05 3.786549e+05 3.786549e+05 2.996687e+05 2.996687e+05 2.996687e+05 2.994218e+05 2.269623e+05 2.269623e+05 2.269623e+05 2.273966e+05 1.325578e+05 1.091879e+05 1.091879e+05 1.091879e+05 1.069463e+05 1.832732e+05 1.832732e+05 1.832732e+05 1.812840e+05 1.812840e+05 3.471272e+04 3.471272e+04 3.143764e+04 4.513282e+05 4.513282e+05 4.513282e+05 4.859195e+05 4.859195e+05 1.973235e+05 2.012641e+05 2.012641e+05 3.604979e+05 3.604979e+05 3.604979e+05 3.871702e+05 3.871702e+05 3.231981e+05 3.231981e+05 3.231981e+05 3.314564e+05 7.378107e+04 6.851668e+04 7.378107e+04 7.378107e+04 7.687825e+04 1.535577e+05 1.535577e+05 1.535577e+05 1.585464e+05 1.650832e+05 1.717080e+05 1.717080e+05 1.229782e+05 1.229782e+05 1.141151e+05 1.141151e+05 1.784831e+05 1.784831e+05 1.784831e+05 1.875773e+05 1.875773e+05 1.166320e+05 1.166320e+05 1.166320e+05 1.162162e+05 1.128536e+05 1.434165e+05 1.341319e+05 2.288919e+05 2.288919e+05 2.288919e+05 2.241962e+05 2.699129e+05 2.699129e+05 2.699129e+05 2.642346e+05 1.930905e+05 1.930905e+05 1.930905e+05 3.043246e+05 3.043246e+05 3.043246e+05 1.260249e+05 1.260249e+05 1.260249e+05 3.557901e+05 3.557901e+05 3.557901e+05 7.159413e+04 7.159413e+04 7.159413e+04 7.155105e+04 6.809297e+04 1.309709e+05 1.309709e+05 1.309709e+05 7.899218e+04 7.899218e+04 8.021921e+04 2.285179e+05 2.285179e+05 2.285179e+05 2.352565e+05 1.490079e+05 1.490079e+05 1.490079e+05 1.482411e+05 1.210984e+05 1.210984e+05 4.703997e+05 4.703997e+05 4.703997e+05 4.507392e+05 4.907443e+04 4.907443e+04 4.907443e+04 4.983807e+04 8.679200e+04 8.679200e+04 8.679200e+04 8.825941e+04 4.446932e+05 4.446932e+05 4.446932e+05 2.856986e+05 2.856986e+05 2.856986e+05 2.852737e+05 1.646811e+05 1.646811e+05 1.646811e+05 1.648795e+05 1.637888e+05 1.637888e+05 1.637888e+05 1.601802e+05 2.149948e+05 2.149948e+05 2.149948e+05 2.189608e+05 6.221607e+05 6.221607e+05 6.221607e+05 6.285632e+05 6.285632e+05 6.285632e+05 6.196373e+05 6.114412e+05 6.114412e+05 6.114412e+05 5.958804e+05 5.744344e+05 5.744344e+05 5.571846e+05 3.186879e+05 3.186879e+05 3.138235e+05 8.301574e+04 8.301574e+04 8.442098e+04 1.960039e+05 1.960039e+05 1.960039e+05 1.983275e+05 2.540210e+05 2.540210e+05 2.540210e+05 6.317705e+05 6.317705e+05 6.289397e+05 2.867648e+05 2.867648e+05 2.853710e+05 2.031153e+05 5.847430e+05 5.849956e+05 1.018509e+05 1.018509e+05 9.821979e+04 6.611980e+05 6.611980e+05 6.611980e+05 6.867523e+05 2.503850e+05 2.503850e+05 5.235502e+05 5.235502e+05 5.235502e+05 6.588755e+05 6.588755e+05 6.588755e+05 6.544523e+05 6.544523e+05 5.999115e+05 5.999115e+05 5.999115e+05 6.286617e+05 5.868080e+05 5.868080e+05 5.868080e+05 5.591844e+05 5.591844e+05 1.244911e+05 1.244911e+05 1.244911e+05 1.201996e+05 1.201996e+05 4.700576e+05 4.700576e+05 4.950139e+05 4.950139e+05 5.804701e+05 5.804701e+05 5.804701e+05 4.928896e+05 4.928896e+05 4.928896e+05 5.250984e+05 1.051888e+05 1.051888e+05 1.051888e+05 1.042100e+05 1.042100e+05 4.028441e+04 4.028441e+04 4.028441e+04 4.457950e+04 4.457950e+04 1.722948e+05 1.722948e+05 1.722948e+05 1.835510e+05 1.835510e+05 2.824856e+05 2.824856e+05 2.824856e+05 2.846759e+05 2.846759e+05 3.290930e+05 3.290930e+05 3.290930e+05 3.545025e+05 2.959501e+05 2.959501e+05 3.483603e+05 3.483603e+05 3.483603e+05 3.327311e+05 3.327311e+05 9.036599e+04 9.036599e+04 9.036599e+04 9.321378e+04 9.321378e+04 1.437049e+05 1.437049e+05 1.437049e+05 1.556513e+05 1.556513e+05 1.454098e+05 1.454098e+05 1.346868e+05 1.346868e+05 2.074144e+05 2.074144e+05 2.163808e+05 2.163808e+05 1.466432e+05 1.352866e+05 1.352866e+05 1.908985e+05 1.908985e+05 1.908985e+05 1.920488e+05 1.920488e+05 1.736421e+05 1.736421e+05 1.232492e+05 1.232492e+05 1.232492e+05 1.254574e+05 1.608637e+05 9.830102e+04 9.471424e+04 1.403601e+05 1.403601e+05 1.403601e+05 1.413211e+05 1.413211e+05 9.650531e+04 9.650531e+04 9.194910e+04 9.029196e+04 9.272794e+04 3.458972e+05 3.458972e+05 3.458972e+05 3.345118e+05 3.717836e+05 3.717836e+05 3.605811e+05 1.745055e+05 1.745055e+05 1.745055e+05 4.648851e+04 4.648851e+04 4.648851e+04 4.448479e+04 4.420544e+04 6.015680e+05 6.015680e+05 6.015680e+05 2.360157e+05 8.693009e+04 5.295186e+04 5.295186e+04 5.916831e+05 5.916831e+05 3.623817e+05 3.539653e+05 3.539653e+05 3.539653e+05 4.169596e+05 4.169596e+05 4.169596e+05 4.195249e+05 7.491337e+05 7.102678e+05 7.102678e+05 6.921326e+05 6.921326e+05 6.921326e+05 7.126452e+05 1.285712e+05 1.285712e+05 1.254854e+05 1.457080e+05 7.255286e+05 7.255286e+05 6.334744e+05 6.334744e+05 1.677266e+05 1.677266e+05 7.107081e+04 7.107081e+04 7.107081e+04 7.009562e+05 7.009562e+05 7.075828e+05 2.362435e+04 2.362435e+04 3.121616e+04 6.092731e+05 6.821616e+05 6.783322e+05 6.783322e+05 6.762727e+05 3.361450e+05 3.361450e+05 3.361450e+05 3.436384e+05 5.053866e+05 4.971321e+05 7.446639e+05 6.975609e+05 5.517601e+05 5.517601e+05 4.970589e+05 4.970589e+05 4.970589e+05 5.105581e+05 1.589597e+05 1.589597e+05 1.526595e+05 1.526595e+05 2.982760e+05 6.622136e+05 6.622136e+05 6.385731e+05 3.922007e+05 3.922007e+05 3.922007e+05 6.380974e+04 7.366620e+05 6.803750e+05 4.440129e+05 4.440129e+05 4.440129e+05 4.383262e+05 6.481884e+04 6.481884e+04 6.414973e+04 4.303035e+05 4.303035e+05 4.402811e+05 9.576704e+04 9.576704e+04 1.845954e+05 1.845954e+05 7.170098e+05 5.957589e+05 5.799651e+05 4.205918e+05 6.781307e+05 6.781307e+05 5.114451e+05 7.858249e+04 7.633002e+04 7.633002e+04 1.401362e+05 1.401362e+05 1.363621e+05 1.363621e+05 6.438657e+05 6.438657e+05 3.681970e+05 6.802809e+05 3.262582e+05 3.262582e+05 3.262978e+05 4.567016e+05 4.567016e+05 4.567016e+05 6.952905e+05 6.952905e+05 2.254692e+05 5.295459e+04 5.295459e+04 4.829636e+05 4.715518e+05 5.474866e+05 2.889570e+05 3.074770e+04 3.374111e+04 6.533276e+05 4.023580e+05 4.014526e+04 4.014526e+04 4.014526e+04 3.785255e+04 6.188928e+05 3.131813e+04 8.079209e+04 8.079209e+04 5.313380e+05 4.824176e+05 1.140542e+05 1.140542e+05 6.463181e+05 6.463181e+05 4.897577e+04 4.897577e+04 1.421374e+05 3.662505e+05 3.662505e+05 9.944948e+04 1.417392e+05 2.194348e+05 2.204876e+05 3.586593e+05 3.586593e+05 3.380655e+05 3.380655e+05 8.940330e+04 2.168316e+05 6.838171e+05 3.634904e+04 2.095289e+05 4.964440e+05 5.779936e+05 3.679879e+04 1.081642e+05 1.132952e+05 1.358423e+05 4.764091e+05 4.626678e+05 6.858080e+05 6.858080e+05 3.587073e+05 3.394634e+05 5.684532e+05 1.232979e+05 5.704444e+05 5.704444e+05 5.081080e+05 5.081080e+05 5.081080e+05 1.913781e+05 3.414978e+05 7.111705e+04 5.884925e+05 5.913482e+05 5.780245e+05 5.780245e+05 5.780245e+05 4.329023e+05 4.329023e+05 4.329023e+05 4.524028e+05 6.782910e+05 3.321969e+05 3.254335e+05 2.009005e+05 2.009005e+05 2.009005e+05 4.833659e+05 4.833659e+05 4.833659e+05 5.122904e+05 4.106086e+05 4.106086e+05 4.187921e+05 3.011388e+05 2.909252e+05 8.963880e+04 9.228092e+04 7.944931e+04 7.944931e+04 7.784251e+04 5.342394e+04 5.342394e+04 5.365025e+04 5.365025e+04 1.273667e+05 6.577459e+05 1.764614e+05 6.613810e+05 6.375609e+05 6.447123e+05 6.447123e+05 6.187351e+05 6.187351e+05 5.338979e+05 5.434403e+05 2.708231e+05 5.920275e+05 5.920275e+05 4.929756e+05 4.929756e+05 5.688849e+05 2.365578e+05 2.365578e+05 2.365578e+05 5.542494e+05 2.357886e+05 5.936831e+04 5.936831e+04 5.936831e+04 6.213877e+04 6.213877e+04 4.294566e+05 4.253597e+05 6.204607e+05 6.204607e+05 6.539088e+05 4.604714e+04 4.991523e+04 3.975737e+05 3.975737e+05 3.429540e+05 4.432659e+05 5.946790e+05 7.036621e+04 7.036621e+04 7.036621e+04 7.531989e+04 6.386522e+05 6.386522e+05 6.202100e+05 6.396690e+05 5.964971e+05 5.964971e+05 1.429622e+05 1.429622e+05 1.429622e+05 1.568901e+05 8.362469e+04 1.571046e+05 1.509499e+05 1.509499e+05 3.126812e+05 2.606746e+05 2.606746e+05 2.702441e+05 4.940871e+05 4.731645e+05 4.731645e+05 5.844177e+05 5.844177e+05 3.296023e+04 3.015155e+05 3.015155e+05 1.918051e+05 1.807048e+05 1.807048e+05 2.485519e+05 2.470408e+05 3.221549e+05 5.548708e+05 8.266338e+04 8.266338e+04 8.266338e+04 1.150088e+05 5.808656e+05 5.658214e+05 2.246036e+05 2.246036e+05 5.324248e+05 5.324248e+05 5.324248e+05 3.913721e+05 3.913721e+05 3.913721e+05 3.318627e+05 1.331103e+05 3.824140e+05 3.824140e+05 3.824140e+05 5.288752e+04 6.159513e+05 1.178710e+05 1.261202e+05 3.070547e+05 2.963345e+05 2.963345e+05 3.740959e+05 2.770337e+05 5.807447e+05 5.718738e+05 5.718738e+05 2.589102e+05 5.437536e+05 5.437536e+05 5.541002e+05 5.440544e+05 5.494810e+05 5.252301e+05 5.252301e+05 5.372228e+05 3.611326e+05 3.611326e+05 3.610518e+05 3.610518e+05 5.142363e+05 5.142363e+05 4.862097e+05 4.862097e+05 2.382759e+05 5.833803e+05 5.460482e+05 2.794812e+05 2.794812e+05 4.674436e+05 4.120369e+04 4.878430e+05 4.937837e+05 4.480612e+05 4.480612e+05 1.932018e+05 8.766888e+04 4.072635e+05 5.173646e+05 5.172746e+05 5.172746e+05 8.077097e+04 3.936092e+05 3.936092e+05 4.173754e+05 2.243246e+05 2.243246e+05 2.243246e+05 1.609316e+05 3.385452e+05 6.879576e+04 6.879576e+04 6.841379e+04 4.537075e+05 4.537075e+05 3.802353e+05 5.235754e+05 5.235754e+05 5.235754e+05 3.021630e+05 5.449809e+05 3.263199e+05 4.006689e+05 4.257681e+05 2.654042e+05 2.542303e+05 2.542303e+05 1.401540e+05 1.356380e+05 1.356380e+05 5.862953e+04 5.572891e+04 1.291364e+05 1.239784e+05 1.239784e+05 5.062514e+05 5.062514e+05 5.062514e+05 5.050555e+05 4.766240e+05 4.766240e+05 1.686367e+05 5.474318e+05 4.206731e+05 2.763077e+05 2.763077e+05 3.714720e+04 3.714720e+04 1.013033e+05 5.519389e+05 5.519389e+05 1.845647e+05 4.585207e+05 4.348275e+05 4.348275e+05 3.075448e+05 3.075448e+05 4.102136e+05 4.102136e+05 2.616535e+05 2.431987e+05 1.113028e+05 3.894376e+05 5.116753e+05 5.116753e+05 4.781296e+05 3.559298e+05 3.559298e+05 3.316663e+05 3.316663e+05 3.591619e+04 2.397346e+05 1.433143e+05 1.494042e+05 2.778368e+05 2.695241e+05 1.001917e+05 3.251314e+05 3.251314e+05 3.251314e+05 4.885258e+05 4.885258e+05 5.138393e+05 1.101201e+05 1.101201e+05 1.101201e+05 8.229854e+04 8.229854e+04 4.153525e+05 4.153525e+05 4.317733e+05 4.968984e+05 4.804918e+05 2.174527e+05 4.464297e+05 4.464297e+05 4.321198e+05 2.602672e+05 4.631597e+05 4.631597e+05 3.163020e+05 1.349064e+05 1.349064e+05 1.349064e+05 1.255548e+05 3.667255e+05 4.646343e+04 5.386111e+04 6.188247e+04 7.142353e+04 3.525174e+05 3.565237e+05 1.622921e+05 5.148205e+05 4.399094e+05 4.399094e+05 4.399094e+05 4.491963e+05 1.532764e+05 4.735216e+05 4.222698e+05 4.211002e+05 3.005824e+05 3.005824e+05 3.005824e+05 2.035972e+05 2.035972e+05 2.035972e+05 2.275296e+05 2.275296e+05 4.192387e+05 4.180943e+05 4.180943e+05 4.180943e+05 2.201900e+05 3.719249e+05 3.719249e+05 3.719249e+05 2.500729e+05 3.097674e+05 3.097674e+05 3.097674e+05 9.902871e+04 9.902871e+04 9.902871e+04 6.819489e+04 1.427606e+05 4.053148e+05 4.053148e+05 3.765999e+05 4.621332e+05 1.804451e+05 1.659573e+05 1.659573e+05 1.659573e+05 2.657079e+05 3.956341e+05 3.927101e+05 1.068174e+05 1.015596e+05 2.441033e+05 5.508825e+04 3.965015e+05 3.965015e+05 4.278837e+05 4.409057e+05 3.448114e+05 2.259238e+05 4.045768e+05 1.611017e+05 1.611017e+05 2.162968e+05 2.499544e+05 1.952254e+05 1.952254e+05 1.919725e+05 1.795596e+05 8.907013e+04 8.907013e+04 2.904429e+05 2.904429e+05 2.987070e+05 3.309084e+05 3.904417e+05 3.796637e+05 2.264076e+05 2.355891e+05 3.375894e+05 4.393808e+05 4.167656e+05 9.738398e+04 6.650242e+04 6.650242e+04 6.650242e+04 3.826406e+05 3.826406e+05 2.718577e+05 2.718577e+05 2.628913e+05 3.635717e+05 3.256739e+05 3.069827e+05 3.069827e+05 1.329271e+05 1.329271e+05 1.408945e+05 1.167834e+05 1.167834e+05 2.032687e+05 1.123236e+05 1.051434e+05 1.674310e+05 1.487777e+05 1.733976e+05 1.851462e+05 3.105381e+05 2.655466e+05 2.655466e+05 2.655466e+05 2.895794e+05 3.629874e+05 3.926970e+05 2.199755e+05 3.460858e+05 2.594887e+05 2.594887e+05 2.721017e+05 2.389857e+05 2.389857e+05 2.280292e+05 2.280292e+05 1.831913e+05 1.875916e+05 7.086061e+04 7.273521e+04 2.224720e+05 1.267607e+05 2.484513e+05 2.484513e+05 1.971766e+05 1.971766e+05 1.971766e+05 1.882283e+05 3.410695e+05 3.243129e+05 2.074160e+05 9.985123e+04 1.667968e+05 2.819486e+05 2.132565e+05 2.132565e+05 2.469082e+05 2.469082e+05 1.149521e+05 1.149521e+05 2.332275e+05 3.426996e+05 3.076016e+05 3.076016e+05 2.922778e+05 8.041283e+04 2.436313e+05 3.168113e+05 1.694335e+05 1.694335e+05 1.615841e+05 1.959136e+05 2.031959e+05 2.853912e+05 2.853912e+05 1.699417e+05 1.699417e+05 1.274724e+05 1.170518e+05 1.170518e+05 1.829406e+05 2.703512e+05 1.034925e+05 2.313813e+05 2.582282e+05 2.779242e+05 8.237383e+04 1.239488e+05 2.356138e+05 2.356138e+05 2.526637e+05 8.831209e+04 7.687825e+04 1.080957e+05 1.080957e+05 1.080957e+05 1.177332e+05 1.816921e+05 1.816921e+05 2.442015e+05 2.442015e+05 2.286649e+05 2.286649e+05 1.932027e+05 9.491255e+04 8.978345e+04 2.046221e+05 2.046221e+05 2.046221e+05 2.028616e+05 1.536424e+05 1.536424e+05 2.035826e+05 2.035826e+05 1.819529e+05 1.819529e+05 1.780284e+05 7.658737e+04 7.658737e+04 7.658737e+04 7.031666e+04 1.710076e+05 1.603350e+05 1.603350e+05 1.002275e+05 1.139845e+05 7.871101e+04 8.451818e+04 9.276200e+04 9.276200e+04 1.644285e+05 2.120359e+05 1.293068e+05 1.312839e+05 1.609452e+05 1.221361e+05 1.221361e+05 1.828222e+05 1.809524e+05 2.158241e+05 1.043170e+05 1.043170e+05 9.598988e+04 1.959126e+05 1.959126e+05 1.840239e+05 1.026607e+05 9.544979e+04 9.544979e+04 9.544979e+04 8.786941e+04 1.747997e+05 9.089186e+04 1.105055e+05 1.459453e+05 9.089186e+04 1.165468e+05 9.827809e+04 9.827809e+04 1.383305e+05 1.346887e+05 1.129293e+05 1.099753e+05 1.351862e+05 1.351862e+05 1.351862e+05 1.100271e+05 1.406400e+05 1.406400e+05 1.406400e+05 1.297260e+05 1.297260e+05 1.225549e+05 1.136605e+05 1.340723e+05 1.185296e+05 1.161099e+05 1.285269e+05 1.209457e+05 1.249899e+05 1.331621e+05 1.331621e+05 1.122841e+05 1.122841e+05 1.168060e+05 1.342399e+05 1.342399e+05 1.342399e+05 1.362184e+05 1.362184e+05 1.276136e+05 1.276136e+05 1.276136e+05 2.493609e+05 2.577938e+05 2.577938e+05 2.577938e+05 1.040946e+05 1.040946e+05 2.633451e+05 2.633451e+05 2.633451e+05 2.708493e+05 2.708493e+05 1.147123e+05 1.080907e+05 2.471606e+05 2.471606e+05 2.401022e+05 1.037358e+05 2.765645e+05 2.685189e+05 2.709212e+05 9.830102e+04 1.062584e+05 1.080621e+05 1.401953e+05 1.401953e+05 1.414762e+05 4.796645e+05 1.873051e+05 1.873051e+05 1.873051e+05 1.769936e+05 2.235092e+05 2.235092e+05 2.235092e+05 2.284863e+05 2.244670e+05 2.244670e+05 3.534637e+05 1.968357e+05 1.968357e+05 1.968357e+05 1.957049e+05 1.504543e+05 4.388593e+05 4.388593e+05 4.388593e+05 2.211060e+05 3.312867e+05 3.312867e+05 2.948097e+05 2.948097e+05 2.948097e+05 2.096245e+05 2.096245e+05 2.096245e+05 2.324027e+05 2.125784e+05 2.125784e+05 2.169585e+05 2.489156e+05 1.858036e+05 2.148640e+05 2.056471e+05 2.059599e+05 1.808016e+05 1.727196e+05 1.955277e+05 1.675193e+05 1.578040e+05 1.655245e+05 1.655245e+05 1.541492e+05 1.541492e+05 1.541492e+05 1.385584e+05 3.906161e+05 2.383355e+05 2.383355e+05 2.111228e+05 1.996371e+05 1.815700e+05 1.815700e+05 3.293888e+05 3.293888e+05 2.829919e+05 2.829919e+05 2.447711e+05 2.312419e+05 1.920639e+05 1.709117e+05 1.541872e+05 1.541872e+05 1.414988e+05 1.462884e+05 3.930366e+05 3.930366e+05 1.785242e+05 1.571430e+05 1.571430e+05 1.658905e+05 1.585779e+05 1.531596e+05 1.468457e+05 1.468457e+05 1.468457e+05 1.476506e+05 1.476506e+05 1.453088e+05 1.434679e+05 1.434679e+05 1.434679e+05 1.553435e+05 1.553435e+05 1.084525e+05 1.416385e+05 1.416385e+05 1.433398e+05 1.408097e+05 1.408097e+05 1.108435e+05 1.171579e+05 1.109707e+05 1.398181e+05 1.398181e+05 1.398181e+05 1.387035e+05 1.447379e+05 1.259144e+05 1.394138e+05 2.729575e+05 1.357777e+05 1.324570e+05 1.373830e+05 1.367590e+05 2.792735e+05 3.105101e+05 3.105101e+05 3.378277e+05 3.378277e+05 3.702720e+05 3.702720e+05 3.702720e+05 3.995642e+05 4.167506e+05 4.167506e+05 4.167506e+05 5.247948e+05 1.390061e+05 1.410983e+05 1.410983e+05 1.410983e+05 1.432089e+05 1.461212e+05 1.480355e+05 1.766664e+05 1.453107e+05 1.485631e+05 1.500634e+05 1.493007e+05 1.537242e+05 1.520385e+05 1.478883e+05 1.416547e+05 1.451844e+05 1.422908e+05 1.422908e+05 1.399856e+05 1.399856e+05 1.453935e+05 1.421638e+05 1.392181e+05 1.382351e+05 2.899655e+05 3.067925e+05 3.969546e+05 5.984588e+05 7.348049e+05 7.379176e+05 7.427206e+05 7.462470e+05 7.454903e+05 7.437635e+05 7.424688e+05 7.364198e+05 7.350570e+05 7.330769e+05 7.058358e+05 1.261439e+05 1.261439e+05 1.326700e+05 1.326700e+05 1.344657e+05 1.367863e+05 1.383550e+05 1.383550e+05 1.383550e+05 1.384935e+05 1.361036e+05 1.361036e+05 1.323005e+05 1.323005e+05 1.323005e+05 1.539650e+05 1.539650e+05 1.539650e+05 1.560606e+05 1.560606e+05 1.310455e+05 1.310455e+05 1.310455e+05 1.331721e+05 1.261439e+05 1.259115e+05 1.259115e+05 1.381828e+05 1.439719e+05 1.439719e+05 6.602128e+05 6.602128e+05 6.602128e+05 6.972586e+05 6.972586e+05 1.321572e+05 1.355234e+05 1.355234e+05 6.838621e+05 6.838621e+05 6.626687e+05 3.383615e+05 3.383615e+05 3.383615e+05 2.786325e+05 2.786325e+05 2.786325e+05 2.732165e+05 2.732165e+05 1.405937e+05 4.897345e+05 4.897345e+05 4.897345e+05 4.775637e+05 7.021230e+05 7.021230e+05 7.021230e+05 6.891634e+05 6.628027e+05 5.762491e+05 5.762491e+05 5.762491e+05 7.015826e+05 6.887319e+05 6.887319e+05 6.887319e+05 7.037625e+05 3.112242e+05 3.324008e+05 3.112242e+05 3.112242e+05 1.607280e+05 1.607280e+05 1.248551e+05 3.672451e+05 3.672451e+05 7.185223e+05 7.330769e+05 6.904561e+05 6.904561e+05 7.037625e+05 5.959303e+05 5.589113e+05 6.621799e+05 6.391275e+05 6.077676e+05 6.077676e+05 6.222956e+05 5.798972e+05 6.099073e+05 6.222956e+05 5.833839e+05 5.297241e+05 5.297241e+05 5.468798e+05 5.468798e+05 5.678391e+05 5.312102e+05 5.112890e+05 4.953867e+05 4.953867e+05 4.762876e+05 5.056685e+05 4.526952e+05 4.123426e+05 4.123426e+05 3.324008e+05 2.866134e+05 2.866134e+05 2.706122e+05 2.706122e+05 2.609496e+05 2.528655e+05 2.198429e+05 1.478810e+05 1.248551e+05 1.248551e+05 1.425009e+05 1.425009e+05 1.425009e+05 1.417405e+05 1.350183e+05 1.442905e+05 1.442905e+05 1.442905e+05 1.439152e+05 1.500307e+05 1.500307e+05 1.500307e+05 1.491386e+05 1.475571e+05 1.703235e+05 1.703235e+05 1.703235e+05 1.736976e+05 1.997232e+05 1.997232e+05 1.997232e+05 1.977894e+05 1.920719e+05 1.749823e+05 1.749823e+05 1.716299e+05 2.325227e+05 2.325227e+05 2.325227e+05 2.370961e+05 2.370961e+05 2.213886e+05 2.213886e+05 2.213886e+05 1.565934e+05 1.565934e+05 2.202821e+05 2.202821e+05 2.202821e+05 2.164819e+05 2.164819e+05 2.988495e+05 2.988495e+05 2.988495e+05 2.584812e+05 2.584812e+05 2.584812e+05 2.017144e+05 2.017144e+05 2.017144e+05 1.496913e+05 2.558135e+05 2.502780e+05 2.170645e+05 2.113264e+05 2.950220e+05 2.654836e+05 2.654836e+05 1.942039e+05 1.942039e+05 2.158092e+05 2.076729e+05 2.449156e+05 2.449156e+05 2.449156e+05 3.038811e+05 3.672451e+05 2.197141e+05 1.851794e+05 1.851794e+05 1.851794e+05 2.421809e+05 2.088496e+05 1.874785e+05 1.775542e+05 1.671775e+05 1.963288e+05 1.668201e+05 1.644171e+05 1.635350e+05 1.635350e+05 1.384584e+05 3.615058e+05 3.615058e+05 2.546827e+05 1.809580e+05 1.809580e+05 2.377159e+05 4.368649e+05 1.711978e+05 1.711978e+05 1.579615e+05 1.579615e+05 1.579615e+05 2.266400e+05 2.688880e+05 1.592591e+05 1.716857e+05 1.590615e+05 1.537285e+05 1.530016e+05 1.530016e+05 1.530016e+05 1.485273e+05 1.485273e+05 1.509430e+05 1.496666e+05 1.496666e+05 1.463287e+05 1.457865e+05 1.405937e+05 1.434552e+05 1.434552e+05 1.377468e+05 1.394786e+05 2.652639e+05 3.482380e+05 3.482380e+05 4.086537e+05 4.086537e+05 3.082418e+05 1.354151e+05 1.869579e+05 2.486102e+05 2.691919e+05 2.748735e+05 2.940041e+05 2.940041e+05 3.198871e+05 3.198871e+05 3.198871e+05 3.453345e+05 3.687399e+05 3.898748e+05 4.185359e+05 4.185359e+05 4.207824e+05 5.411425e+05 1.588759e+05 1.657795e+05 2.878082e+05 4.383403e+05 1.697001e+05 1.750514e+05 1.572040e+05 1.527649e+05 1.604143e+05 1.535910e+05 1.460573e+05 1.653440e+05 1.470738e+05 1.470738e+05 1.451080e+05 1.447376e+05 1.406092e+05 1.404897e+05 1.404897e+05 1.398280e+05 1.419795e+05 1.422554e+05 2.800263e+05 3.160723e+05 3.703693e+05 4.621509e+05 3.606703e+05 3.896079e+05 3.128758e+05 4.385008e+05 3.841143e+05 1.392401e+05 1.326700e+05 7.348049e+05 7.435881e+05 7.491337e+05 7.446639e+05 7.430604e+05 7.475373e+05 7.450009e+05 7.366620e+05 7.362917e+05 7.391592e+05 7.356421e+05 7.330050e+05 7.273771e+05 7.236461e+05 7.226767e+05 7.172285e+05 7.103814e+05 7.053197e+05 7.016373e+05 6.971814e+05 6.912109e+05 6.862590e+05 6.798013e+05 6.773927e+05 6.749837e+05 6.770403e+05 6.662131e+05 6.633857e+05 6.532225e+05 6.510879e+05 6.503770e+05 6.474483e+05 6.442019e+05 6.355762e+05 6.315586e+05 6.196694e+05 6.173928e+05 6.079227e+05 5.957589e+05 5.926648e+05 5.891426e+05 5.818516e+05 5.761344e+05 5.652508e+05 5.632054e+05 5.570334e+05 5.433408e+05 5.313380e+05 5.287046e+05 5.194576e+05 5.127150e+05 5.053866e+05 4.941915e+05 4.819009e+05 4.705855e+05 4.627229e+05 4.567248e+05 4.502730e+05 4.399384e+05 4.346165e+05 4.242429e+05 4.147172e+05 4.014750e+05 3.881840e+05 3.784778e+05 3.755037e+05 3.623817e+05 3.556858e+05 3.473803e+05 3.397486e+05 3.309580e+05 3.241172e+05 3.165958e+05 3.114819e+05 3.031119e+05 2.960032e+05 2.845674e+05 2.742226e+05 2.656872e+05 2.590980e+05 2.519724e+05 2.443644e+05 2.356756e+05 2.286314e+05 2.200899e+05 2.130408e+05 2.051771e+05 1.982777e+05 1.925553e+05 1.859992e+05 1.790533e+05 1.718556e+05 1.662017e+05 1.577410e+05 1.517165e+05 1.457080e+05 1.383897e+05 1.325578e+05 1.273465e+05 1.219998e+05 1.166421e+05 1.112443e+05 1.061508e+05 1.000230e+05 9.534526e+04 8.909514e+04 8.407972e+04 7.983589e+04 7.505609e+04 7.207396e+04 6.843758e+04 6.380974e+04 6.063775e+04 5.715044e+04 5.216096e+04 5.001416e+04 4.608750e+04 4.218648e+04 3.937557e+04 3.579230e+04 3.374111e+04 3.074770e+04 2.576471e+04 2.576471e+04 1.123163e+05 1.123163e+05 1.309378e+05 1.325018e+05 1.343392e+05 1.367590e+05 1.385584e+05 1.385584e+05 1.388358e+05 1.398280e+05 1.406092e+05 1.406092e+05 1.431607e+05 1.431607e+05 1.460573e+05 1.475571e+05 1.481791e+05 1.504052e+05 1.527649e+05 1.588759e+05 1.588759e+05 1.657795e+05 1.657795e+05 1.697001e+05 1.787330e+05 1.809580e+05 1.869579e+05 1.899446e+05 1.987276e+05 2.049501e+05 2.113264e+05 2.221842e+05 2.254056e+05 2.370961e+05 2.490524e+05 2.591630e+05 2.691919e+05 2.691919e+05 2.796619e+05 3.010360e+05 3.010360e+05 3.271752e+05 3.371706e+05 3.371706e+05 3.615058e+05 3.898748e+05 3.898748e+05 4.185359e+05 4.383403e+05 4.749388e+05 4.749388e+05 5.014364e+05 5.589113e+05 5.959303e+05 6.621610e+05 6.853527e+05 1.112702e+05 1.640880e+05 1.640880e+05 1.640880e+05 1.671552e+05 1.487173e+05 1.487173e+05 1.487173e+05 1.526855e+05 1.526855e+05 1.728606e+05 1.728606e+05 1.728606e+05 1.742393e+05 1.724239e+05 1.040946e+05 1.548570e+05 1.548570e+05 1.515323e+05 1.655358e+05 1.655358e+05 1.655358e+05 1.631507e+05 1.609724e+05 3.519584e+05 3.519584e+05 3.519584e+05 3.410555e+05 1.239726e+05 1.239726e+05 1.239726e+05 1.218790e+05 1.195053e+05 1.195053e+05 1.606088e+05 1.606088e+05 1.483453e+05 1.459161e+05 1.112702e+05 1.112702e+05 1.343627e+05 1.343627e+05 1.343627e+05 1.329663e+05 1.298329e+05 1.298329e+05 1.321462e+05 1.569987e+05 1.569987e+05 1.569987e+05 1.570617e+05 1.528442e+05 1.623345e+05 1.616958e+05 1.334968e+05 1.334968e+05 1.334968e+05 1.287096e+05 8.962063e+04 7.871101e+04 6.929351e+04 7.871101e+04 2.396408e+05 2.396408e+05 2.396408e+05 2.887655e+05 2.887655e+05 2.887655e+05 2.764181e+05 5.243009e+04 4.687698e+04 5.243009e+04 5.243009e+04 2.499859e+05 2.499859e+05 2.499859e+05 2.524127e+05 3.947394e+05 3.947394e+05 3.947394e+05 3.825683e+05 4.690523e+05 4.690523e+05 4.690523e+05 4.440105e+05 4.440105e+05 6.537965e+04 6.537965e+04 6.537965e+04 6.357432e+04 9.841794e+04 9.841794e+04 9.841794e+04 9.332715e+04 9.332715e+04 5.362039e+05 5.362039e+05 5.362039e+05 5.501596e+05 2.015525e+05 2.015525e+05 2.015525e+05 1.996306e+05 1.996306e+05 3.143764e+04 3.471272e+04 5.409941e+05 5.409941e+05 5.409941e+05 5.258654e+05 5.945133e+05 5.945133e+05 5.945133e+05 6.154530e+05 6.154530e+05 2.650755e+05 2.650755e+05 2.650755e+05 2.602672e+05 5.776556e+05 5.776556e+05 5.776556e+05 5.591180e+05 5.715044e+04 3.786549e+05 3.786549e+05 3.786549e+05 2.996687e+05 2.996687e+05 2.996687e+05 2.994218e+05 2.269623e+05 2.269623e+05 2.269623e+05 2.273966e+05 1.325578e+05 1.091879e+05 1.091879e+05 1.091879e+05 1.069463e+05 1.832732e+05 1.832732e+05 1.832732e+05 1.812840e+05 1.812840e+05 3.471272e+04 3.471272e+04 3.143764e+04 4.513282e+05 4.513282e+05 4.513282e+05 4.859195e+05 4.859195e+05 1.973235e+05 2.012641e+05 2.012641e+05 3.604979e+05 3.604979e+05 3.604979e+05 3.871702e+05 3.871702e+05 3.231981e+05 3.231981e+05 3.231981e+05 3.314564e+05 7.378107e+04 6.851668e+04 7.378107e+04 7.378107e+04 7.687825e+04 1.535577e+05 1.535577e+05 1.535577e+05 1.585464e+05 1.650832e+05 1.717080e+05 1.717080e+05 1.229782e+05 1.229782e+05 1.141151e+05 1.141151e+05 1.784831e+05 1.784831e+05 1.784831e+05 1.875773e+05 1.875773e+05 1.166320e+05 1.166320e+05 1.166320e+05 1.162162e+05 1.128536e+05 1.434165e+05 1.341319e+05 2.288919e+05 2.288919e+05 2.288919e+05 2.241962e+05 2.699129e+05 2.699129e+05 2.699129e+05 2.642346e+05 1.930905e+05 1.930905e+05 1.930905e+05 3.043246e+05 3.043246e+05 3.043246e+05 1.260249e+05 1.260249e+05 1.260249e+05 3.557901e+05 3.557901e+05 3.557901e+05 7.159413e+04 7.159413e+04 7.159413e+04 7.155105e+04 6.809297e+04 1.309709e+05 1.309709e+05 1.309709e+05 7.899218e+04 7.899218e+04 8.021921e+04 2.285179e+05 2.285179e+05 2.285179e+05 2.352565e+05 1.490079e+05 1.490079e+05 1.490079e+05 1.482411e+05 1.210984e+05 1.210984e+05 4.703997e+05 4.703997e+05 4.703997e+05 4.507392e+05 4.907443e+04 4.907443e+04 4.907443e+04 4.983807e+04 8.679200e+04 8.679200e+04 8.679200e+04 8.825941e+04 4.446932e+05 4.446932e+05 4.446932e+05 2.856986e+05 2.856986e+05 2.856986e+05 2.852737e+05 1.646811e+05 1.646811e+05 1.646811e+05 1.648795e+05 1.637888e+05 1.637888e+05 1.637888e+05 1.601802e+05 2.149948e+05 2.149948e+05 2.149948e+05 2.189608e+05 6.