<?xml version="1.0"?>
 <VTKFile type="UnstructuredGrid" version="1.0" byte_order="LittleEndian" header_type="UInt64">
  <UnstructuredGrid>
    <FieldData>
     <DataArray type="Float64" Name="TimeValue" NumberOfTuples="1" format="ascii">
6e-05
     </DataArray>
    </FieldData>
   <Piece NumberOfPoints="3548" NumberOfCells="3379">
    <PointData>
     <DataArray type="Float64" Name="pointP" format="ascii">
3.098788e+04 2.223738e+04 2.044920e+04 1.784508e+04 1.587426e+04 1.437844e+04 1.228293e+04 1.052143e+04 7.984505e+03 5.875637e+03 4.198883e+03 2.399535e+03 9.620449e+02 -1.746646e+03 -3.821999e+03 -5.484570e+03 -7.484434e+03 -9.359551e+03 -1.102814e+04 -1.118372e+04 -1.199680e+04 -1.280423e+04 -1.323766e+04 -1.358770e+04 -1.360916e+04 -1.486989e+04 -1.534942e+04 -1.561634e+04 -1.674856e+04 -1.519868e+04 -1.763081e+04 -1.724709e+04 -1.669805e+04 -1.899636e+04 -1.936783e+04 -1.933731e+04 -1.833711e+04 -1.862862e+04 -2.040983e+04 -1.939441e+04 -1.961111e+04 -1.961677e+04 -1.877566e+04 -2.038194e+04 -2.071533e+04 -1.861584e+04 -2.049656e+04 -2.037129e+04 -1.901441e+04 -2.042887e+04 -2.212759e+04 -1.976884e+04 -2.096269e+04 -1.972517e+04 -1.993339e+04 -2.101696e+04 -2.088797e+04 -2.206103e+04 -1.734227e+04 -1.993560e+04 -1.868376e+04 -2.179028e+04 -1.910819e+04 -2.262773e+04 -2.175056e+04 -1.909153e+04 -2.071190e+04 -1.542732e+04 -1.898489e+04 -1.957921e+04 -2.038332e+04 -2.134729e+04 -2.001254e+04 -2.125734e+04 -2.052783e+04 -2.256549e+04 -1.994703e+04 -3.317618e+04 -3.881651e+04 -4.759883e+04 -5.068323e+04 -5.068323e+04 -5.435608e+04 -5.701735e+04 -5.724485e+04 -5.646617e+04 -5.646617e+04 -5.413614e+04 -5.104360e+04 -4.875424e+04 -4.665125e+04 -4.579422e+04 -4.123989e+04 -4.017594e+04 -3.805942e+04 -3.421218e+04 -3.193112e+04 -2.979267e+04 -2.653511e+04 -2.469370e+04 -2.270252e+04 -1.970431e+04 -1.970431e+04 -1.721067e+04 -1.356849e+04 -1.252866e+04 -1.066613e+04 -9.334045e+03 -6.302640e+03 3.641751e+03 -1.428753e+04 -6.242995e+03 8.975438e+03 1.864086e+03 6.957999e+03 7.923573e+03 9.318678e+03 1.166192e+04 1.397484e+04 1.483307e+04 1.861952e+04 1.958352e+04 2.156956e+04 2.292081e+04 2.325863e+04 2.560300e+04 2.571518e+04 2.789175e+04 2.789175e+04 2.900689e+04 3.095711e+04 3.311601e+04 3.311601e+04 3.508739e+04 3.681521e+04 3.681521e+04 3.849082e+04 4.007323e+04 4.107256e+04 4.297339e+04 4.297339e+04 4.522073e+04 4.522073e+04 4.652646e+04 4.770419e+04 4.932950e+04 5.036975e+04 5.123831e+04 5.339545e+04 5.339545e+04 5.492597e+04 5.598691e+04 5.700230e+04 5.857774e+04 5.857774e+04 4.725263e+04 4.725263e+04 4.725263e+04 4.897841e+04 7.993003e+04 7.993003e+04 7.993003e+04 6.154298e+04 6.154298e+04 6.154298e+04 6.744944e+04 2.650577e+04 2.650577e+04 2.650577e+04 2.124675e+04 2.910193e+03 2.910193e+03 2.910193e+03 -4.918382e+03 -4.295149e+04 -4.295149e+04 -4.295149e+04 -4.232958e+04 -4.143137e+04 -3.945832e+04 -3.945832e+04 -3.945832e+04 -3.782323e+04 4.670756e+04 4.670756e+04 4.670756e+04 9.644703e+03 9.644703e+03 9.644703e+03 1.146854e+04 1.080300e+04 -4.186764e+04 -4.186764e+04 -4.186764e+04 -4.085187e+04 2.665989e+04 2.665989e+04 2.665989e+04 3.054503e+04 3.054503e+04 -1.688269e+04 -1.688269e+04 -1.688269e+04 -1.751466e+04 -1.800160e+04 -2.645650e+04 -2.645650e+04 -2.645650e+04 -2.717289e+04 -2.765551e+04 -1.571244e+04 -1.571244e+04 -1.571244e+04 -1.652370e+04 -2.879845e+04 -2.879845e+04 -2.879845e+04 2.314656e+04 2.314656e+04 -1.453800e+04 -1.453800e+04 -2.300099e+04 -2.300099e+04 -2.300099e+04 -2.196105e+04 -2.992731e+04 -2.992731e+04 -2.992731e+04 -2.535319e+04 -3.382638e+04 -3.382638e+04 -3.872432e+04 -3.872432e+04 -2.832885e+04 -2.832885e+04 -2.832885e+04 -2.531468e+04 -2.531468e+04 -3.711046e+04 -3.711046e+04 -3.711046e+04 -3.917182e+04 -3.917182e+04 2.520460e+04 -3.248422e+04 -3.248422e+04 -3.248422e+04 -3.109229e+04 1.560825e+04 1.560825e+04 1.560825e+04 1.474427e+04 1.474427e+04 -7.173870e+03 -7.173870e+03 -7.173870e+03 -1.408466e+03 -1.408466e+03 -1.896789e+04 -1.896789e+04 -1.896789e+04 -1.989524e+04 -1.989524e+04 -2.713875e+04 -2.713875e+04 -2.713875e+04 -2.387899e+04 -2.387899e+04 4.015450e+04 4.015450e+04 4.015450e+04 4.096372e+04 3.497119e+04 3.497119e+04 3.497119e+04 3.073850e+04 -9.034294e+03 -9.034294e+03 -9.034294e+03 -1.452696e+04 -1.452696e+04 6.457419e+04 6.457419e+04 6.457419e+04 3.084073e+04 3.084073e+04 3.084073e+04 3.266724e+04 3.266724e+04 5.648329e+04 5.648329e+04 5.648329e+04 6.544168e+04 6.544168e+04 2.183498e+04 2.183498e+04 2.183498e+04 2.769512e+04 -9.322740e+03 -9.322740e+03 -4.014722e+04 -4.014722e+04 -4.014722e+04 1.753970e+04 1.753970e+04 2.366943e+04 2.366943e+04 2.558624e+04 2.558624e+04 2.558624e+04 2.612374e+04 -4.312122e+04 -4.312122e+04 -4.312122e+04 -4.391927e+04 2.466071e+04 2.466071e+04 -4.286539e+04 -4.286539e+04 -4.286539e+04 -8.897665e+03 -8.897665e+03 -8.897665e+03 -9.735504e+03 -9.735504e+03 -3.414654e+04 -3.414654e+04 -3.414654e+04 -4.009266e+04 -4.009266e+04 -3.098189e+04 -3.098189e+04 -3.160199e+04 -2.960829e+04 -2.960829e+04 -2.960829e+04 -8.461824e+03 -8.461824e+03 -1.674856e+04 -2.922291e+04 -2.922291e+04 -2.922291e+04 -2.596190e+04 -1.488711e+04 -1.456875e+04 -2.550351e+04 -2.550351e+04 -2.550351e+04 -2.972317e+04 -2.972317e+04 -2.972317e+04 -2.918193e+04 -2.918193e+04 -2.918193e+04 -3.435722e+04 -3.435722e+04 -3.435722e+04 -3.727709e+04 -3.727709e+04 -3.712108e+04 -3.712108e+04 -3.712108e+04 -3.740122e+04 -3.740122e+04 -3.505429e+04 -3.505429e+04 -3.581094e+04 -3.581094e+04 -4.001095e+04 -4.001095e+04 -3.840720e+04 3.638507e+04 3.638507e+04 3.561845e+04 3.561845e+04 3.616888e+04 3.616888e+04 9.023147e+04 8.666217e+04 9.023147e+04 9.023147e+04 5.419748e+03 1.865202e+01 1.865202e+01 -3.233023e+04 -3.233023e+04 -3.233023e+04 -3.456644e+04 -3.456644e+04 -3.456644e+04 2.408920e+04 -1.135992e+04 -1.135992e+04 -1.277366e+04 -1.277366e+04 -1.321871e+04 -6.688727e+03 -1.526690e+04 -2.179028e+04 -3.113245e+04 -3.113245e+04 -2.511879e+04 -2.511879e+04 -2.248543e+04 -1.763081e+04 -1.941293e+04 -1.941293e+04 -3.085591e+04 -3.085591e+04 -3.085591e+04 -2.389816e+04 -3.102875e+04 1.587426e+04 1.876925e+04 1.876925e+04 -1.936783e+04 -2.238032e+04 -2.238032e+04 2.520460e+04 -1.085103e+04 -1.085103e+04 -1.957210e+04 9.955028e+03 9.955028e+03 9.955028e+03 -2.584492e+04 -2.367736e+04 -2.367736e+04 -2.251816e+04 -3.291533e+03 -3.291533e+03 -3.291533e+03 1.778990e-04 1.778990e-04 -1.203969e+03 5.833883e+03 5.833883e+03 -1.922459e+04 1.052143e+04 1.232238e+04 -2.565060e+04 -2.565060e+04 -3.049032e+04 -3.072175e+04 -2.973707e+04 -2.973707e+04 -2.872024e+04 -2.088797e+04 -2.993777e+04 -2.993777e+04 -2.502030e+04 1.437844e+04 1.759659e+04 -3.106989e+04 -1.690015e+04 -2.426268e+04 6.240704e+03 6.240704e+03 -2.733299e+04 -2.731202e+04 -3.070629e+04 -2.592404e+04 -2.592404e+04 -2.592404e+04 -2.550248e+04 -2.550248e+04 2.147537e+04 2.147537e+04 -1.788312e+04 3.792343e+03 3.166745e+03 -3.467040e+04 -3.053353e+04 -3.053353e+04 2.411210e+04 -1.163824e+04 -2.199926e+04 -2.668014e+04 2.053081e+04 -2.197453e+04 -2.002606e+04 -2.372536e+04 -2.567442e+04 -2.567442e+04 -1.524016e+04 -2.993187e+04 -2.589735e+04 -2.673558e+04 -4.261892e+04 1.961476e+04 1.961476e+04 1.704666e+04 -2.278195e+04 -2.427052e+04 -2.427052e+04 -3.038272e+04 9.413433e+03 9.413433e+03 9.413433e+03 8.518651e+03 -3.941128e+04 -3.194252e+04 -2.460006e+03 -2.460006e+03 -2.460006e+03 -6.756443e+03 -2.982322e+04 -2.863075e+04 -3.470272e+04 -3.470272e+04 -1.739766e+04 -1.839396e+04 -1.987249e+04 -1.995337e+04 -2.842241e+04 1.085659e+04 -3.412745e+04 -2.995041e+04 -2.995041e+04 -3.394159e+04 -3.394159e+04 -3.502069e+04 -3.502069e+04 -1.694292e+04 -1.694292e+04 -3.655491e+04 -2.876473e+04 1.779952e+04 1.779952e+04 -4.844196e+03 -4.844196e+03 2.083461e+03 -2.833604e+04 5.843992e+03 2.332957e+03 -2.582761e+04 -2.706326e+04 -3.456865e+04 -3.456865e+04 -3.468962e+04 -3.845365e+04 1.897385e+04 -3.979164e+04 -3.979164e+04 -2.710632e+04 -2.644851e+04 -3.930475e+04 -4.140890e+04 -4.043811e+04 -2.478344e+04 -3.028088e+04 9.626745e+03 9.626745e+03 -2.079826e+04 2.891589e+04 -3.604035e+04 -3.165919e+04 1.970115e+04 -1.961406e+04 -1.961406e+04 -1.961406e+04 -1.825002e+04 -1.825002e+04 -2.040185e+04 -2.125677e+04 -1.190400e+04 -1.367981e+04 -2.868307e+04 -4.378361e+04 -2.024497e+02 -2.951681e+04 -4.089816e+04 -1.940246e+04 -3.610133e+04 -4.898759e+04 -4.898759e+04 -4.898759e+04 -2.277775e+04 -2.398975e+04 -7.614132e+02 5.941481e+03 -4.527702e+04 -4.527702e+04 -3.147343e+04 -3.911752e+04 -3.911752e+04 -3.981072e+04 -3.981072e+04 -6.389621e+03 -4.315725e+04 -4.112458e+04 -4.112458e+04 -1.766974e+04 -1.766974e+04 3.790572e+03 -1.436072e+04 -1.436072e+04 -1.555507e+04 -4.404040e+04 -4.404040e+04 -4.644948e+04 -4.644948e+04 -4.644948e+04 -4.681533e+04 -2.051029e+03 3.045258e+04 -2.950202e+04 -2.950202e+04 -2.798636e+04 3.467558e+04 -1.153990e+04 -5.409055e+03 -3.592537e+04 -4.250742e+04 7.443214e+03 9.536756e+03 -2.487124e+04 -2.487124e+04 6.676205e+03 6.676205e+03 -2.320006e+04 -4.283932e+04 -3.981401e+04 -3.981401e+04 -1.471340e+04 -1.538352e+04 3.467558e+04 -1.486735e+04 -1.423494e+04 -1.423494e+04 1.125012e+04 -4.118588e+04 -4.118588e+04 -4.476621e+04 -4.435943e+04 -4.435943e+04 3.406636e+04 3.406636e+04 3.102397e+04 -1.168286e+04 -1.168286e+04 -1.168286e+04 -1.778548e+04 -4.663527e+04 2.481529e+04 4.548904e+04 -7.196983e+03 -7.196983e+03 -2.849038e+04 -2.849038e+04 -3.055892e+04 3.732809e+04 -4.173833e+04 -4.530087e+04 -4.530087e+04 -7.095272e+03 -4.724782e+04 -4.724782e+04 -4.306392e+04 -3.897346e+04 -1.856464e+04 -3.123737e+04 -3.123737e+04 -3.123737e+04 2.436300e+04 1.760107e+04 -2.322798e+04 -1.580725e+04 -1.580725e+04 -2.344444e+04 -2.344444e+04 -2.344444e+04 -2.812310e+04 -4.372561e+04 2.950842e+03 2.950842e+03 -3.552956e+03 -4.040020e+04 -2.783337e+04 -2.783337e+04 -2.783337e+04 -2.565098e+04 -1.271660e+04 -1.133134e+03 5.282544e+04 4.316331e+04 3.854517e+04 1.578474e+04 9.139380e+03 -2.360380e+04 4.082760e+03 4.082760e+03 -3.328614e+04 -3.328614e+04 -3.721387e+04 -3.644514e+04 1.611060e+04 1.611060e+04 1.611060e+04 -3.120031e+04 4.686933e+04 -1.967237e+04 5.136298e+04 5.276914e+04 7.661038e+03 4.078014e+03 -2.852769e+04 -3.520389e+04 -2.675087e+04 -8.236918e+03 -8.236918e+03 2.202474e+04 2.202474e+04 2.202474e+04 6.487768e+04 1.327199e+04 5.114431e+03 9.484986e+03 2.209361e+04 1.224976e+04 1.657777e+04 5.230759e+04 3.764293e+04 -1.414190e+04 -1.414190e+04 -1.414190e+04 -2.128923e+04 -2.097433e+04 2.373939e+04 2.373939e+04 -1.033840e+04 -1.033840e+04 3.553517e+04 4.039762e+04 1.420769e+04 4.512078e+04 1.151989e+04 7.183715e+04 3.909778e+04 3.909778e+04 5.445824e+04 6.818715e+04 6.818715e+04 4.755308e+04 4.755308e+04 5.619916e+04 5.619916e+04 3.777650e+04 6.421711e+04 6.421711e+04 4.539830e+04 7.360390e+04 8.226395e+04 8.521753e+04 5.576888e+04 5.576888e+04 5.576888e+04 -4.108778e+04 -4.108778e+04 -4.108778e+04 -4.195171e+04 -4.195171e+04 4.869518e+04 4.869518e+04 4.869518e+04 5.135881e+04 -4.463251e+04 -4.463251e+04 -4.287431e+04 -4.287431e+04 -5.107456e+04 -5.107456e+04 -5.107456e+04 4.546903e+04 4.546903e+04 4.546903e+04 4.559008e+04 5.990289e+03 5.990289e+03 5.990289e+03 8.110637e+03 2.170282e+04 2.170282e+04 -6.422675e+03 -6.422675e+03 -6.422675e+03 -1.530088e+04 -1.530088e+04 -1.530088e+04 -2.995297e+04 -2.995297e+04 -2.995297e+04 -3.389025e+04 -3.389025e+04 -3.389025e+04 -3.547217e+04 3.396356e+04 3.396356e+04 3.396356e+04 2.247657e+04 2.247657e+04 2.247657e+04 3.903031e+04 3.903031e+04 3.903031e+04 2.851742e+04 2.851742e+04 2.851742e+04 2.537983e+04 2.537983e+04 5.746510e+04 5.746510e+04 5.000052e+04 4.275338e+04 6.771898e+04 6.771898e+04 6.771898e+04 3.149687e+04 3.149687e+04 -1.646322e+04 -1.646322e+04 -1.646322e+04 5.404204e+03 5.404204e+03 5.404204e+03 -1.931719e+04 -1.931719e+04 -1.931719e+04 -1.972785e+04 -2.102038e+04 -2.102038e+04 -2.102038e+04 -2.083583e+04 -2.423679e+04 -2.423679e+04 -2.423679e+04 -1.435723e+04 -1.435723e+04 -1.435723e+04 -1.863354e+04 -1.982248e+04 5.238675e+03 5.238675e+03 5.238675e+03 -2.234750e+04 -2.234750e+04 -1.509112e+04 -1.509112e+04 -1.331518e+04 -1.269090e+04 -1.269090e+04 1.451068e+04 1.451068e+04 1.451068e+04 2.049418e+04 2.049418e+04 1.902203e+04 1.902203e+04 1.902203e+04 -1.905162e+04 3.039042e+04 3.039042e+04 3.039042e+04 4.893408e+04 4.624502e+04 8.219066e+04 8.219066e+04 6.126143e+04 6.126143e+04 1.685019e+04 1.685019e+04 1.685019e+04 1.976116e+04 2.195344e+04 -3.948036e+04 -3.948036e+04 -1.090279e+04 -4.508371e+04 -2.287170e+04 -2.287170e+04 -2.287170e+04 5.196763e+03 -3.218944e+04 -3.218944e+04 -1.317062e+04 -5.480095e+03 -5.480095e+03 -2.182128e+04 2.915844e+04 2.915844e+04 9.166640e+03 9.166640e+03 9.166640e+03 -5.202664e+04 -5.202664e+04 -5.202664e+04 -3.624113e+04 -3.806156e+04 2.856302e+04 -4.684812e+04 -4.684812e+04 -4.684812e+04 -4.985072e+04 -2.508417e+04 -2.508417e+04 1.481855e+04 1.481855e+04 1.925271e+03 -3.178712e+04 -3.178712e+04 -2.815058e+04 -2.815058e+04 -2.129188e+03 -2.129188e+03 -2.129188e+03 4.005659e+04 4.005659e+04 4.917410e+04 4.917410e+04 -1.907293e+04 2.362126e+04 2.362126e+04 2.362126e+04 -3.040143e+04 -3.040143e+04 2.191886e+04 2.191886e+04 -4.053696e+04 -4.053696e+04 4.490440e+04 4.490440e+04 4.106222e+04 1.258221e+04 1.258221e+04 1.287976e+04 1.287976e+04 -3.020959e+04 -3.020959e+04 -3.020959e+04 1.126133e+04 1.126133e+04 1.126133e+04 -3.364659e+04 -1.983738e+04 -4.770158e+04 5.084549e+03 5.084549e+03 3.951878e+04 -2.763820e+04 1.633288e+04 1.633288e+04 2.391815e+04 2.391815e+04 2.391815e+04 -3.623138e+04 -3.579711e+04 -3.579711e+04 2.473855e+04 2.473855e+04 2.608841e+04 1.286962e+04 1.245511e+04 1.245511e+04 4.146037e+04 4.146037e+04 4.146037e+04 2.834761e+04 2.834761e+04 4.768682e+04 2.012938e+04 1.051120e+03 1.051120e+03 5.923966e+04 -1.343665e+04 -1.343665e+04 1.252538e+04 1.161436e+04 1.161436e+04 1.144935e+04 3.543232e+04 3.543232e+04 -2.645991e+04 -2.645991e+04 2.878444e+04 9.599477e+03 9.599477e+03 1.412296e+04 1.412296e+04 1.589153e+04 2.681357e+04 1.363038e+01 1.363038e+01 1.696549e+04 1.339709e+04 -2.980550e+04 -2.980550e+04 -3.794937e+03 6.776034e+03 4.007517e+04 4.007517e+04 4.007517e+04 3.553276e+04 3.553276e+04 3.553276e+04 1.850830e+04 1.850830e+04 5.003254e+04 5.003254e+04 5.003254e+04 8.529197e+03 4.032533e+04 3.525930e+04 3.637617e+04 4.442192e+04 4.442192e+04 4.442192e+04 1.605903e+04 3.153179e+04 3.153179e+04 2.627450e+04 2.627450e+04 2.627450e+04 5.950243e+04 1.053845e+04 2.836794e+04 2.836794e+04 3.426859e+04 3.426859e+04 3.426859e+04 3.277980e+04 4.113439e+04 7.605014e+04 7.605014e+04 7.605014e+04 1.393022e+02 1.393022e+02 5.900713e-01 5.979466e+04 3.760444e+04 2.269054e+04 3.782532e+04 3.782532e+04 3.747539e+04 3.717970e+04 3.717970e+04 5.388329e+04 5.388329e+04 5.388329e+04 3.132460e+04 3.050852e+04 -1.023943e+04 4.168587e+04 4.401436e+04 3.918976e+04 3.732478e+03 6.005050e+04 6.005050e+04 6.043177e+04 5.158776e+04 5.158776e+04 3.482628e+04 5.759149e+04 5.759149e+04 5.759149e+04 5.074203e+04 5.074203e+04 1.820216e+04 1.820216e+04 2.199242e+04 4.572609e+04 4.572609e+04 5.252578e+04 2.869005e+04 3.447092e+04 5.493656e+04 6.119263e+04 5.076730e+04 3.843303e+04 6.119263e+04 7.024866e+04 -5.620517e+04 -5.620517e+04 -2.401730e+04 -2.401730e+04 -5.607573e+04 -5.607573e+04 -2.874303e+04 -3.741408e+04 -5.601157e+04 -5.703245e+04 -4.873376e+04 6.649575e+04 6.649575e+04 4.018458e+04 -2.431857e+04 1.578772e+04 5.233532e+04 5.233532e+04 -4.967435e+04 -4.995571e+04 -5.358416e+04 -5.346870e+04 -5.346870e+04 -5.346870e+04 -5.376113e+04 -5.376113e+04 -5.376113e+04 -5.159248e+04 -5.180380e+04 -5.180380e+04 -4.850293e+04 -4.850293e+04 -5.243714e+04 -5.425859e+04 -4.973379e+04 2.777719e+04 6.513766e+04 7.402791e+04 8.209563e+04 4.903123e+04 4.903123e+04 1.818707e+04 -4.537185e+04 -5.556181e+04 -5.091700e+04 -4.859969e+04 -4.859969e+04 -3.431251e+04 -1.753398e+04 -1.195463e+04 1.653490e+04 1.653490e+04 2.790110e+04 5.089339e+04 4.426095e+04 5.822422e+04 5.822422e+04 5.822422e+04 2.452798e+04 3.742590e+04 3.358600e+04 3.358600e+04 -2.561381e+04 2.586123e+04 2.586123e+04 7.176631e+03 -2.258351e+04 1.025888e+04 1.025888e+04 5.658462e+04 5.658462e+04 5.658462e+04 5.501435e+04 5.501435e+04 5.859919e+04 4.473796e+03 1.237095e+04 1.998830e+04 3.177627e+04 5.003691e+04 -2.672524e+04 -5.707804e+03 9.731485e+02 3.109249e+04 5.466159e+03 3.839692e+04 2.289821e+04 3.634891e+04 3.634891e+04 4.650203e+04 3.095947e+04 3.579113e+04 4.581423e+04 3.224225e+04 5.706548e+04 5.211591e+04 5.211591e+04 5.343197e+04 4.436698e+04 5.061290e+04 3.250811e+04 3.250811e+04 2.741723e+04 2.678144e+04 4.132243e+04 3.975259e+04 4.883666e+04 4.229820e+04 5.336848e+04 3.101084e+04 5.190013e+04 5.190013e+04 5.190013e+04 5.247261e+04 4.977944e+04 4.977944e+04 4.259678e+04 4.259678e+04 4.774082e+04 4.695175e+04 4.695175e+04 5.653162e+04 4.357432e+04 4.801534e+04 4.546038e+04 5.698912e+04 5.446728e+04 5.923966e+04 5.923966e+04 5.810455e+04 2.853570e+04 5.335789e+04 5.335789e+04 5.462866e+04 5.462866e+04 4.733261e+04 5.697040e+04 5.618846e+04 5.474538e+04 5.474538e+04 -2.040082e+04 -2.040082e+04 -2.077255e+04 -2.094051e+04 -1.981828e+04 -2.517700e+04 -2.127288e+04 -2.057280e+04 -4.643132e+04 -4.643132e+04 -4.643132e+04 -4.725952e+04 -5.636340e+04 -5.636340e+04 -5.636340e+04 -5.553984e+04 -2.943600e+04 -2.943600e+04 -3.256906e+04 -3.256906e+04 -1.959161e+04 -3.288958e+04 -3.288958e+04 -3.288958e+04 -2.691240e+04 -4.726170e+04 -4.726170e+04 -4.726170e+04 -4.816908e+04 -4.931691e+04 -4.974561e+04 -3.296962e+04 -3.296962e+04 -3.619102e+04 -3.169944e+04 -3.169944e+04 -3.169944e+04 -4.300980e+04 -4.300980e+04 -4.300980e+04 -3.760316e+04 -3.760316e+04 -3.809497e+04 -4.489231e+04 -3.203381e+04 -3.194629e+04 -3.194629e+04 -3.358658e+04 -3.881651e+04 -4.925329e+04 -4.925329e+04 -4.925329e+04 -5.177723e+04 -5.177723e+04 -3.809497e+04 -3.781517e+04 -4.303949e+04 -3.416473e+04 -4.241139e+04 -4.241139e+04 -4.573643e+04 -4.417146e+04 -4.734951e+04 -4.982576e+04 -5.126080e+04 -4.965448e+04 -4.965448e+04 -4.412618e+04 -3.872702e+04 -3.039096e+04 -3.039096e+04 -3.039096e+04 -2.290238e+04 -2.290238e+04 -7.779425e+03 7.978597e+03 7.978597e+03 4.353353e+04 1.702756e+04 1.702756e+04 1.702756e+04 2.609062e+04 2.609062e+04 -2.807213e+04 -2.807213e+04 -2.807213e+04 -4.665125e+04 -4.665125e+04 1.718957e+04 5.601885e+04 5.601885e+04 5.601885e+04 -1.128446e+04 -1.128446e+04 -1.128446e+04 -1.574334e+04 -1.246692e+04 4.035793e+04 4.035793e+04 4.035793e+04 -1.439202e+04 -1.439202e+04 -1.439202e+04 -4.564978e+04 -4.564978e+04 -4.564978e+04 -4.612362e+04 -4.612362e+04 -3.244770e+04 -3.244770e+04 -3.244770e+04 -1.068655e+04 -1.068655e+04 -3.778750e+04 -3.778750e+04 -3.778750e+04 -3.651783e+04 -3.651783e+04 -2.481398e+04 -2.481398e+04 -2.481398e+04 3.789029e+04 3.789029e+04 3.789029e+04 -1.631595e+04 -1.631595e+04 -1.631595e+04 -2.161345e+04 -2.161345e+04 3.767550e+04 3.767550e+04 3.767550e+04 4.008875e+04 4.008875e+04 7.250891e+04 4.874018e+04 4.874018e+04 4.874018e+04 4.994860e+04 2.622217e+04 2.622217e+04 2.622217e+04 2.758095e+04 4.628942e+04 4.628942e+04 4.628942e+04 -6.919459e+03 -1.067982e+04 2.757279e+04 2.757279e+04 2.757279e+04 5.762428e+03 5.062688e+04 5.062688e+04 5.062688e+04 -3.000171e+04 -3.000171e+04 -3.000171e+04 -2.672067e+04 -2.672067e+04 -1.575096e+04 -1.575096e+04 -1.575096e+04 -1.672684e+04 -2.457865e+04 -2.457865e+04 -1.886530e+04 -1.886530e+04 -3.421218e+04 -3.155313e+04 -3.030001e+04 -1.900001e+04 -5.024316e+04 -3.353893e+04 -3.872702e+04 -4.057296e+04 -4.057296e+04 4.244477e+04 4.244477e+04 4.244477e+04 2.415177e+04 2.415177e+04 6.102254e+04 6.102254e+04 6.102254e+04 -4.928940e+04 -4.928940e+04 -4.928940e+04 2.292081e+04 2.292081e+04 -1.252866e+04 -1.252866e+04 4.781774e+03 4.781774e+03 4.781774e+03 -9.338284e+03 -9.338284e+03 -9.338284e+03 -1.577755e+04 -1.577755e+04 -1.577755e+04 -5.055562e+04 3.508739e+04 3.508739e+04 3.641751e+03 3.641751e+03 1.864086e+03 1.864086e+03 -2.677065e+04 -2.677065e+04 -2.912937e+04 -4.110381e+04 -4.110381e+04 -4.110381e+04 -4.064951e+04 -5.165712e+04 -5.244871e+04 -3.331190e+04 2.518029e+04 2.518029e+04 2.518029e+04 -2.127589e+04 -2.127589e+04 -4.990892e+04 -4.990892e+04 -5.269878e+04 -5.269878e+04 -5.071644e+04 -5.071644e+04 -1.104176e+04 -1.104176e+04 -1.473786e+04 -3.908190e+04 -3.908190e+04 1.968747e+04 1.968747e+04 1.968747e+04 -1.897064e+04 -1.336555e+04 -3.172746e+04 1.253427e+04 1.253427e+04 1.253427e+04 9.983764e+03 9.983764e+03 9.983764e+03 -1.774309e+04 2.685550e+04 2.685550e+04 2.685550e+04 3.003205e+04 3.003205e+04 3.003205e+04 -8.883079e+03 -8.883079e+03 -4.628458e+04 -4.258656e+04 1.689894e+03 1.689894e+03 -5.351907e+03 -5.351907e+03 -6.082516e+02 -2.854502e+03 -2.341093e+04 -1.357398e+04 -2.861255e+03 -2.861255e+03 -8.161886e+03 1.581728e+04 2.775183e+04 2.775183e+04 -2.676966e+04 -2.934440e+04 1.827887e+04 1.827887e+04 2.841222e+04 -1.020760e+04 -1.020760e+04 -1.177103e+03 2.407338e+04 2.407338e+04 2.407338e+04 1.458734e+04 1.448069e+04 2.774854e+04 2.774854e+04 2.774854e+04 3.054609e+04 3.054609e+04 -3.522482e+04 -6.906468e+03 -9.020132e+03 -9.020132e+03 -4.094084e+03 3.524666e+04 2.447706e+04 2.447706e+04 2.447706e+04 4.959407e+04 6.892145e+03 3.945350e+04 3.945350e+04 3.945350e+04 3.742942e+04 3.194543e+04 3.194543e+04 3.342616e+04 3.342616e+04 2.459872e+04 9.477591e+03 -2.541093e+04 -1.944298e+03 2.376446e+04 2.376446e+04 2.376446e+04 1.896202e+04 1.896202e+04 3.601259e+04 3.601259e+04 3.601259e+04 6.487446e+04 3.099228e+04 3.224788e+04 3.224788e+04 3.169533e+04 3.169533e+04 3.035818e+04 4.350411e+04 3.875808e+04 3.875808e+04 3.875808e+04 3.940274e+04 3.940274e+04 4.691146e+04 4.691146e+04 4.691146e+04 3.285782e+04 3.285782e+04 3.795246e+04 3.458663e+04 3.458663e+04 5.442131e+04 5.442131e+04 5.171488e+04 5.171488e+04 4.494143e+04 2.738064e+04 2.738064e+04 5.015679e+04 5.015679e+04 -2.294997e+01 3.521055e+04 3.567621e+04 3.567621e+04 3.351407e+04 3.858299e+04 3.858299e+04 3.863570e+04 3.863570e+04 3.863570e+04 3.639042e+04 4.815912e+04 4.815912e+04 4.815912e+04 4.263551e+04 4.661467e+04 7.045357e+03 7.045357e+03 7.045357e+03 3.403186e+04 3.615677e+04 4.086813e+04 3.745470e+04 3.597204e+04 4.535646e+04 7.490559e+03 4.294610e+04 4.294610e+04 4.773932e+04 5.992115e+04 5.992115e+04 5.992115e+04 4.165150e+04 4.198951e+04 3.379475e+04 4.358934e+04 4.547032e+04 4.547662e+04 2.636906e+04 4.863660e+04 4.863660e+04 4.293337e+04 2.774254e+04 6.257806e+04 6.234999e+04 3.484278e+04 3.484278e+04 3.787442e+04 5.317110e+04 6.257806e+04 5.522179e+04 5.522179e+04 5.522179e+04 5.620064e+04 3.163406e+04 4.502731e+04 6.372763e+04 5.880369e+04 5.880369e+04 5.880369e+04 5.595310e+04 5.595310e+04 6.372763e+04 4.810871e+04 4.810871e+04 6.243523e+04 4.164671e+04 4.164671e+04 4.243787e+04 4.849621e+04 6.483916e+04 6.483916e+04 6.483916e+04 5.221611e+04 5.558521e+04 5.558521e+04 6.258313e+04 4.353353e+04 4.353353e+04 6.437817e+04 6.306790e+04 6.373943e+04 5.914272e+04 5.914272e+04 5.696648e+04 6.785694e+04 6.733041e+04 6.733041e+04 7.036283e+04 6.437817e+04 6.437817e+04 6.834850e+04 -6.242995e+03 -3.805942e+04 -5.646617e+04 -5.435608e+04 -5.435608e+04 -1.066613e+04 -2.480484e+04 -2.480484e+04 -4.073317e+04 -4.216386e+04 -5.413614e+04 -5.413614e+04 -5.724485e+04 -4.388737e+04 -5.331302e+04 -5.291578e+04 -5.440575e+04 1.595791e+04 3.915340e+04 5.426230e+04 -1.030717e+04 -5.507714e+04 -5.163196e+04 -4.704671e+04 3.626999e+04 3.378281e+04 4.931196e+04 5.177497e+04 -1.543160e+04 5.115936e+04 -1.951757e+04 5.274120e+04 5.803877e+04 5.803877e+04 5.803877e+04 4.452578e+04 9.318678e+03 9.318678e+03 1.423557e+04 -1.769004e+04 -2.270252e+04 -9.880123e+03 2.156956e+04 -6.302640e+03 1.166192e+04 2.789175e+04 3.095711e+04 3.095711e+04 3.681521e+04 4.297339e+04 1.397484e+04 2.799507e+04 2.799507e+04 1.607871e+04 2.560300e+04 4.522073e+04 2.857154e+04 4.357611e+04 4.652646e+04 3.163281e+04 4.262300e+04 4.107256e+04 4.107256e+04 3.311601e+04 3.849082e+04 3.718106e+04 5.339545e+04 5.492597e+04 5.492597e+04 4.770419e+04 3.031996e+04 5.036975e+04 5.036975e+04 4.115767e+04 5.598913e+04 5.598913e+04 5.307131e+04 5.307131e+04 4.608510e+04 4.932950e+04 4.303141e+04 4.209570e+04 5.850223e+04 5.850223e+04 5.850223e+04 3.325377e+04 4.851095e+04 5.123831e+04 5.803332e+04 4.457596e+04 3.355856e+04 3.599682e+04 5.271464e+04 3.878088e+04 4.939225e+04 4.939225e+04 4.867795e+04 5.629023e+04 5.629023e+04 4.603550e+04 4.603550e+04 4.481423e+04 3.415771e+04 5.074947e+04 5.394313e+04 5.520017e+04 6.079473e+04 5.894395e+04 5.400675e+04 4.971086e+04 5.182068e+04 5.716617e+04 3.098788e+04 2.223738e+04 2.044920e+04 1.784508e+04 1.587426e+04 1.437844e+04 1.228293e+04 1.052143e+04 7.984505e+03 5.875637e+03 4.198883e+03 2.399535e+03 9.620449e+02 -1.746646e+03 -3.821999e+03 -5.484570e+03 -7.484434e+03 -9.359551e+03 -1.102814e+04 -1.118372e+04 -1.199680e+04 -1.280423e+04 -1.323766e+04 -1.358770e+04 -1.360916e+04 -1.486989e+04 -1.534942e+04 -1.561634e+04 -1.674856e+04 -1.519868e+04 -1.763081e+04 -1.724709e+04 -1.669805e+04 -1.899636e+04 -1.936783e+04 -1.933731e+04 -1.833711e+04 -1.862862e+04 -2.040983e+04 -1.939441e+04 -1.961111e+04 -1.961677e+04 -1.877566e+04 -2.038194e+04 -2.071533e+04 -1.861584e+04 -2.049656e+04 -2.037129e+04 -1.901441e+04 -2.042887e+04 -2.212759e+04 -1.976884e+04 -2.096269e+04 -1.972517e+04 -1.993339e+04 -2.101696e+04 -2.088797e+04 -2.206103e+04 -1.734227e+04 -1.993560e+04 -1.868376e+04 -2.179028e+04 -1.910819e+04 -2.262773e+04 -2.175056e+04 -1.909153e+04 -2.071190e+04 -1.542732e+04 -1.898489e+04 -1.957921e+04 -2.038332e+04 -2.134729e+04 -2.001254e+04 -2.125734e+04 -2.052783e+04 -2.256549e+04 -1.994703e+04 -3.317618e+04 -3.881651e+04 -4.759883e+04 -5.068323e+04 -5.068323e+04 -5.435608e+04 -5.701735e+04 -5.724485e+04 -5.646617e+04 -5.646617e+04 -5.413614e+04 -5.104360e+04 -4.875424e+04 -4.665125e+04 -4.579422e+04 -4.123989e+04 -4.017594e+04 -3.805942e+04 -3.421218e+04 -3.193112e+04 -2.979267e+04 -2.653511e+04 -2.469370e+04 -2.270252e+04 -1.970431e+04 -1.970431e+04 -1.721067e+04 -1.356849e+04 -1.252866e+04 -1.066613e+04 -9.334045e+03 -6.302640e+03 3.641751e+03 -1.428753e+04 -6.242995e+03 8.975438e+03 1.864086e+03 6.957999e+03 7.923573e+03 9.318678e+03 1.166192e+04 1.397484e+04 1.483307e+04 1.861952e+04 1.958352e+04 2.156956e+04 2.292081e+04 2.325863e+04 2.560300e+04 2.571518e+04 2.789175e+04 2.789175e+04 2.900689e+04 3.095711e+04 3.311601e+04 3.311601e+04 3.508739e+04 3.681521e+04 3.681521e+04 3.849082e+04 4.007323e+04 4.107256e+04 4.297339e+04 4.297339e+04 4.522073e+04 4.522073e+04 4.652646e+04 4.770419e+04 4.932950e+04 5.036975e+04 5.123831e+04 5.339545e+04 5.339545e+04 5.492597e+04 5.598691e+04 5.700230e+04 5.857774e+04 5.857774e+04 4.725263e+04 4.725263e+04 4.725263e+04 4.897841e+04 7.993003e+04 7.993003e+04 7.993003e+04 6.154298e+04 6.154298e+04 6.154298e+04 6.744944e+04 2.650577e+04 2.650577e+04 2.650577e+04 2.124675e+04 2.910193e+03 2.910193e+03 2.910193e+03 -4.918382e+03 -4.295149e+04 -4.295149e+04 -4.295149e+04 -4.232958e+04 -4.143137e+04 -3.945832e+04 -3.945832e+04 -3.945832e+04 -3.782323e+04 4.670756e+04 4.670756e+04 4.670756e+04 9.644703e+03 9.644703e+03 9.644703e+03 1.146854e+04 1.080300e+04 -4.186764e+04 -4.186764e+04 -4.186764e+04 -4.085187e+04 2.665989e+04 2.665989e+04 2.665989e+04 3.054503e+04 3.054503e+04 -1.688269e+04 -1.688269e+04 -1.688269e+04 -1.751466e+04 -1.800160e+04 -2.645650e+04 -2.645650e+04 -2.645650e+04 -2.717289e+04 -2.765551e+04 -1.571244e+04 -1.571244e+04 -1.571244e+04 -1.652370e+04 -2.879845e+04 -2.879845e+04 -2.879845e+04 2.314656e+04 2.314656e+04 -1.453800e+04 -1.453800e+04 -2.300099e+04 -2.300099e+04 -2.300099e+04 -2.196105e+04 -2.992731e+04 -2.992731e+04 -2.992731e+04 -2.535319e+04 -3.382638e+04 -3.382638e+04 -3.872432e+04 -3.872432e+04 -2.832885e+04 -2.832885e+04 -2.832885e+04 -2.531468e+04 -2.531468e+04 -3.711046e+04 -3.711046e+04 -3.711046e+04 -3.917182e+04 -3.917182e+04 2.520460e+04 -3.248422e+04 -3.248422e+04 -3.248422e+04 -3.109229e+04 1.560825e+04 1.560825e+04 1.560825e+04 1.474427e+04 1.474427e+04 -7.173870e+03 -7.173870e+03 -7.173870e+03 -1.408466e+03 -1.408466e+03 -1.896789e+04 -1.896789e+04 -1.896789e+04 -1.989524e+04 -1.989524e+04 -2.713875e+04 -2.713875e+04 -2.713875e+04 -2.387899e+04 -2.387899e+04 4.015450e+04 4.015450e+04 4.015450e+04 4.096372e+04 3.497119e+04 3.497119e+04 3.497119e+04 3.073850e+04 -9.034294e+03 -9.034294e+03 -9.034294e+03 -1.452696e+04 -1.452696e+04 6.457419e+04 6.457419e+04 6.457419e+04 3.084073e+04 3.084073e+04 3.084073e+04 3.266724e+04 3.266724e+04 5.648329e+04 5.648329e+04 5.648329e+04 6.544168e+04 6.544168e+04 2.183498e+04 2.183498e+04 2.183498e+04 2.769512e+04 -9.322740e+03 -9.322740e+03 -4.014722e+04 -4.014722e+04 -4.014722e+04 1.753970e+04 1.753970e+04 2.366943e+04 2.366943e+04 2.558624e+04 2.558624e+04 2.558624e+04 2.612374e+04 -4.312122e+04 -4.312122e+04 -4.312122e+04 -4.391927e+04 2.466071e+04 2.466071e+04 -4.286539e+04 -4.286539e+04 -4.286539e+04 -8.897665e+03 -8.897665e+03 -8.897665e+03 -9.735504e+03 -9.735504e+03 -3.414654e+04 -3.414654e+04 -3.414654e+04 -4.009266e+04 -4.009266e+04 -3.098189e+04 -3.098189e+04 -3.160199e+04 -2.960829e+04 -2.960829e+04 -2.960829e+04 -8.461824e+03 -8.461824e+03 -1.674856e+04 -2.922291e+04 -2.922291e+04 -2.922291e+04 -2.596190e+04 -1.488711e+04 -1.456875e+04 -2.550351e+04 -2.550351e+04 -2.550351e+04 -2.972317e+04 -2.972317e+04 -2.972317e+04 -2.918193e+04 -2.918193e+04 -2.918193e+04 -3.435722e+04 -3.435722e+04 -3.435722e+04 -3.727709e+04 -3.727709e+04 -3.712108e+04 -3.712108e+04 -3.712108e+04 -3.740122e+04 -3.740122e+04 -3.505429e+04 -3.505429e+04 -3.581094e+04 -3.581094e+04 -4.001095e+04 -4.001095e+04 -3.840720e+04 3.638507e+04 3.638507e+04 3.561845e+04 3.561845e+04 3.616888e+04 3.616888e+04 9.023147e+04 8.666217e+04 9.023147e+04 9.023147e+04 5.419748e+03 1.865202e+01 1.865202e+01 -3.233023e+04 -3.233023e+04 -3.233023e+04 -3.456644e+04 -3.456644e+04 -3.456644e+04 2.408920e+04 -1.135992e+04 -1.135992e+04 -1.277366e+04 -1.277366e+04 -1.321871e+04 -6.688727e+03 -1.526690e+04 -2.179028e+04 -3.113245e+04 -3.113245e+04 -2.511879e+04 -2.511879e+04 -2.248543e+04 -1.763081e+04 -1.941293e+04 -1.941293e+04 -3.085591e+04 -3.085591e+04 -3.085591e+04 -2.389816e+04 -3.102875e+04 1.587426e+04 1.876925e+04 1.876925