<?xml version="1.0"?>
 <VTKFile type="UnstructuredGrid" version="1.0" byte_order="LittleEndian" header_type="UInt64">
  <UnstructuredGrid>
    <FieldData>
     <DataArray type="Float64" Name="TimeValue" NumberOfTuples="1" format="ascii">
4.85843e-06
     </DataArray>
    </FieldData>
   <Piece NumberOfPoints="3468" NumberOfCells="3392">
    <PointData>
     <DataArray type="Float64" Name="pointP" format="ascii">
1.013182e+05 1.013183e+05 1.013185e+05 1.013188e+05 1.013189e+05 1.013191e+05 1.013191e+05 1.013193e+05 1.013195e+05 1.013197e+05 1.013197e+05 1.013200e+05 1.013200e+05 1.013203e+05 1.013203e+05 1.013204e+05 1.013206e+05 1.013207e+05 1.013209e+05 1.013210e+05 1.013211e+05 1.013213e+05 1.013214e+05 1.013214e+05 1.013216e+05 1.013217e+05 1.013218e+05 1.013219e+05 1.013221e+05 1.013221e+05 1.013222e+05 1.013223e+05 1.013224e+05 1.013225e+05 1.013226e+05 1.013226e+05 1.013228e+05 1.013229e+05 1.013230e+05 1.013230e+05 1.013231e+05 1.013231e+05 1.013232e+05 1.013233e+05 1.013234e+05 1.013234e+05 1.013235e+05 1.013236e+05 1.013236e+05 1.013237e+05 1.013237e+05 1.013238e+05 1.013239e+05 1.013239e+05 1.013240e+05 1.013240e+05 1.013241e+05 1.013241e+05 1.013242e+05 1.013242e+05 1.013243e+05 1.013243e+05 1.013243e+05 1.013243e+05 1.013244e+05 1.013244e+05 1.013245e+05 1.013245e+05 1.013245e+05 1.013246e+05 1.013246e+05 1.013246e+05 1.013246e+05 1.013247e+05 1.013247e+05 1.013247e+05 1.013247e+05 1.013247e+05 1.013248e+05 1.013248e+05 1.013248e+05 1.013248e+05 1.013248e+05 1.013248e+05 1.013249e+05 1.013249e+05 1.013249e+05 1.013249e+05 1.013249e+05 1.013249e+05 1.013249e+05 1.013249e+05 1.013249e+05 1.013249e+05 1.013249e+05 1.013249e+05 1.013249e+05 1.013249e+05 1.013249e+05 1.013250e+05 1.013250e+05 1.013250e+05 1.013250e+05 1.013250e+05 1.013250e+05 1.013250e+05 1.013250e+05 1.013250e+05 1.013250e+05 1.013250e+05 1.013250e+05 1.013250e+05 1.013250e+05 1.013250e+05 1.013250e+05 1.013250e+05 1.013250e+05 1.013250e+05 1.013250e+05 1.013250e+05 1.013250e+05 1.013250e+05 1.013250e+05 1.013250e+05 1.013250e+05 1.013250e+05 1.013250e+05 1.013250e+05 1.013250e+05 1.013252e+05 1.013258e+05 1.013258e+05 1.013263e+05 1.013263e+05 1.013245e+05 1.013245e+05 1.013245e+05 1.013245e+05 1.013245e+05 1.013250e+05 1.013250e+05 1.013239e+05 1.013239e+05 1.013239e+05 1.013243e+05 1.013243e+05 1.013249e+05 1.013249e+05 1.013249e+05 1.013251e+05 1.013254e+05 1.013254e+05 1.013253e+05 1.013250e+05 1.013250e+05 1.013250e+05 1.013250e+05 1.013250e+05 1.013250e+05 1.013250e+05 1.013250e+05 1.013250e+05 1.013250e+05 1.013250e+05 1.013250e+05 1.013250e+05 1.013250e+05 1.013250e+05 1.013250e+05 1.013250e+05 1.013250e+05 1.013241e+05 1.013241e+05 1.013241e+05 1.013239e+05 1.013239e+05 1.013237e+05 1.013220e+05 1.013220e+05 1.013220e+05 1.013220e+05 1.013220e+05 1.013244e+05 1.013234e+05 1.013234e+05 1.013235e+05 1.013221e+05 1.013221e+05 1.013221e+05 1.013234e+05 1.013234e+05 1.013234e+05 1.013181e+05 1.013181e+05 1.013181e+05 1.013187e+05 1.013187e+05 1.013187e+05 1.013245e+05 1.013245e+05 1.013245e+05 1.013208e+05 1.013208e+05 1.013208e+05 1.013228e+05 1.013228e+05 1.013228e+05 1.013229e+05 1.013205e+05 1.013205e+05 1.013220e+05 1.013220e+05 1.013220e+05 1.013183e+05 1.013185e+05 1.013219e+05 1.013219e+05 1.013240e+05 1.013240e+05 1.013240e+05 1.013242e+05 1.013242e+05 1.013239e+05 1.013242e+05 1.013242e+05 1.013254e+05 1.013254e+05 1.013254e+05 1.013247e+05 1.013247e+05 1.013214e+05 1.013214e+05 1.013214e+05 1.013218e+05 1.013199e+05 1.013209e+05 1.013227e+05 1.013227e+05 1.013223e+05 1.013223e+05 1.013223e+05 1.013203e+05 1.013199e+05 1.013199e+05 1.013212e+05 1.013212e+05 1.013212e+05 1.013243e+05 1.013243e+05 1.013243e+05 1.013219e+05 1.013219e+05 1.013219e+05 1.013254e+05 1.013250e+05 1.013183e+05 1.013183e+05 1.013183e+05 1.013187e+05 1.013234e+05 1.013234e+05 1.013189e+05 1.013225e+05 1.013225e+05 1.013225e+05 1.013185e+05 1.013185e+05 1.013226e+05 1.013226e+05 1.013216e+05 1.013216e+05 1.013216e+05 1.013200e+05 1.013200e+05 1.013200e+05 1.013201e+05 1.013201e+05 1.013201e+05 1.013187e+05 1.013187e+05 1.013227e+05 1.013227e+05 1.013191e+05 1.013191e+05 1.013191e+05 1.013226e+05 1.013231e+05 1.013231e+05 1.013231e+05 1.013188e+05 1.013227e+05 1.013227e+05 1.013213e+05 1.013213e+05 1.013213e+05 1.013235e+05 1.013235e+05 1.013235e+05 1.013201e+05 1.013205e+05 1.013205e+05 1.013205e+05 1.013195e+05 1.013195e+05 1.013195e+05 1.013185e+05 1.013186e+05 1.013210e+05 1.013210e+05 1.013210e+05 1.013212e+05 1.013212e+05 1.013234e+05 1.013234e+05 1.013234e+05 1.013190e+05 1.013190e+05 1.013190e+05 1.013190e+05 1.013191e+05 1.013190e+05 1.013190e+05 1.013230e+05 1.013230e+05 1.013230e+05 1.013195e+05 1.013195e+05 1.013210e+05 1.013210e+05 1.013182e+05 1.013193e+05 1.013193e+05 1.013203e+05 1.013203e+05 1.013203e+05 1.013222e+05 1.013193e+05 1.013200e+05 1.013200e+05 1.013226e+05 1.013226e+05 1.013223e+05 1.013223e+05 1.013223e+05 1.013213e+05 1.013213e+05 1.013241e+05 1.013241e+05 1.013241e+05 1.013236e+05 1.013236e+05 1.013236e+05 1.013219e+05 1.013189e+05 1.013233e+05 1.013233e+05 1.013233e+05 1.013210e+05 1.013210e+05 1.013210e+05 1.013205e+05 1.013205e+05 1.013189e+05 1.013213e+05 1.013237e+05 1.013237e+05 1.013237e+05 1.013216e+05 1.013216e+05 1.013239e+05 1.013239e+05 1.013239e+05 1.013218e+05 1.013218e+05 1.013218e+05 1.013216e+05 1.013242e+05 1.013242e+05 1.013242e+05 1.013218e+05 1.013209e+05 1.013209e+05 1.013214e+05 1.013230e+05 1.013230e+05 1.013216e+05 1.013221e+05 1.013221e+05 1.013223e+05 1.013223e+05 1.013220e+05 1.013213e+05 1.013235e+05 1.013235e+05 1.013235e+05 1.013224e+05 1.013242e+05 1.013242e+05 1.013200e+05 1.013224e+05 1.013224e+05 1.013225e+05 1.013246e+05 1.013246e+05 1.013246e+05 1.013240e+05 1.013240e+05 1.013227e+05 1.013227e+05 1.013228e+05 1.013228e+05 1.013217e+05 1.013239e+05 1.013239e+05 1.013239e+05 1.013233e+05 1.013233e+05 1.013233e+05 1.013209e+05 1.013239e+05 1.013239e+05 1.013233e+05 1.013233e+05 1.013203e+05 1.013215e+05 1.013220e+05 1.013220e+05 1.013243e+05 1.013243e+05 1.013243e+05 1.013229e+05 1.013248e+05 1.013248e+05 1.013248e+05 1.013232e+05 1.013232e+05 1.013229e+05 1.013220e+05 1.013246e+05 1.013246e+05 1.013246e+05 1.013244e+05 1.013244e+05 1.013244e+05 1.013245e+05 1.013245e+05 1.013242e+05 1.013242e+05 1.013241e+05 1.013241e+05 1.013240e+05 1.013224e+05 1.013224e+05 1.013229e+05 1.013229e+05 1.013236e+05 1.013236e+05 1.013223e+05 1.013248e+05 1.013248e+05 1.013248e+05 1.013248e+05 1.013235e+05 1.013244e+05 1.013244e+05 1.013237e+05 1.013237e+05 1.013241e+05 1.013226e+05 1.013235e+05 1.013240e+05 1.013240e+05 1.013242e+05 1.013242e+05 1.013233e+05 1.013248e+05 1.013248e+05 1.013248e+05 1.013249e+05 1.013249e+05 1.013249e+05 1.013237e+05 1.013237e+05 1.013237e+05 1.013235e+05 1.013235e+05 1.013250e+05 1.013250e+05 1.013250e+05 1.013248e+05 1.013248e+05 1.013248e+05 1.013244e+05 1.013249e+05 1.013249e+05 1.013249e+05 1.013245e+05 1.013245e+05 1.013238e+05 1.013248e+05 1.013248e+05 1.013250e+05 1.013250e+05 1.013250e+05 1.013239e+05 1.013239e+05 1.013243e+05 1.013243e+05 1.013246e+05 1.013246e+05 1.013246e+05 1.013249e+05 1.013249e+05 1.013249e+05 1.013246e+05 1.013249e+05 1.013249e+05 1.013249e+05 1.013250e+05 1.013250e+05 1.013250e+05 1.013247e+05 1.013247e+05 1.013247e+05 1.013246e+05 1.013247e+05 1.013247e+05 1.013247e+05 1.013243e+05 1.013243e+05 1.013250e+05 1.013248e+05 1.013248e+05 1.013248e+05 1.013250e+05 1.013250e+05 1.013250e+05 1.013247e+05 1.013247e+05 1.013247e+05 1.013249e+05 1.013249e+05 1.013249e+05 1.013248e+05 1.013248e+05 1.013249e+05 1.013249e+05 1.013250e+05 1.013250e+05 1.013249e+05 1.013249e+05 1.013249e+05 1.013247e+05 1.013247e+05 1.013247e+05 1.013247e+05 1.013249e+05 1.013249e+05 1.013249e+05 1.013248e+05 1.013248e+05 1.013249e+05 1.013250e+05 1.013250e+05 1.013250e+05 1.013249e+05 1.013249e+05 1.013249e+05 1.013249e+05 1.013249e+05 1.013252e+05 1.013252e+05 1.013252e+05 1.013258e+05 1.013258e+05 1.013258e+05 1.013250e+05 1.013250e+05 1.013250e+05 1.013250e+05 1.013250e+05 1.013250e+05 1.013250e+05 1.013250e+05 1.013250e+05 1.013254e+05 1.013204e+05 1.013246e+05 1.013202e+05 1.013227e+05 1.013259e+05 1.013250e+05 1.013250e+05 1.013250e+05 1.013249e+05 1.013249e+05 1.013248e+05 1.013248e+05 1.013250e+05 1.013249e+05 1.013257e+05 1.013244e+05 1.013250e+05 1.013250e+05 1.013250e+05 1.013250e+05 1.013250e+05 1.013250e+05 1.013249e+05 1.013248e+05 1.013248e+05 1.013248e+05 1.013248e+05 1.013248e+05 1.013248e+05 1.013241e+05 1.013240e+05 1.013196e+05 1.013199e+05 1.013199e+05 1.013182e+05 1.013218e+05 1.013218e+05 1.013245e+05 1.013246e+05 1.013250e+05 1.013250e+05 1.013250e+05 1.013250e+05 1.013250e+05 1.013186e+05 1.013186e+05 1.013208e+05 1.013196e+05 1.013187e+05 1.013188e+05 1.013191e+05 1.013191e+05 1.013191e+05 1.013213e+05 1.013197e+05 1.013200e+05 1.013224e+05 1.013215e+05 1.013209e+05 1.013209e+05 1.013209e+05 1.013208e+05 1.013208e+05 1.013186e+05 1.013189e+05 1.013201e+05 1.013184e+05 1.013212e+05 1.013195e+05 1.013193e+05 1.013193e+05 1.013190e+05 1.013205e+05 1.013205e+05 1.013203e+05 1.013193e+05 1.013205e+05 1.013216e+05 1.013217e+05 1.013219e+05 1.013203e+05 1.013203e+05 1.013203e+05 1.013198e+05 1.013198e+05 1.013211e+05 1.013211e+05 1.013199e+05 1.013197e+05 1.013206e+05 1.013191e+05 1.013195e+05 1.013232e+05 1.013212e+05 1.013198e+05 1.013216e+05 1.013203e+05 1.013207e+05 1.013223e+05 1.013223e+05 1.013228e+05 1.013205e+05 1.013192e+05 1.013239e+05 1.013239e+05 1.013197e+05 1.013228e+05 1.013228e+05 1.013214e+05 1.013214e+05 1.013228e+05 1.013240e+05 1.013237e+05 1.013237e+05 1.013237e+05 1.013206e+05 1.013207e+05 1.013207e+05 1.013239e+05 1.013242e+05 1.013215e+05 1.013236e+05 1.013236e+05 1.013236e+05 1.013229e+05 1.013222e+05 1.013224e+05 1.013224e+05 1.013230e+05 1.013230e+05 1.013231e+05 1.013236e+05 1.013236e+05 1.013243e+05 1.013243e+05 1.013222e+05 1.013213e+05 1.013229e+05 1.013229e+05 1.013229e+05 1.013233e+05 1.013236e+05 1.013216e+05 1.013228e+05 1.013241e+05 1.013241e+05 1.013241e+05 1.013225e+05 1.013225e+05 1.013238e+05 1.013233e+05 1.013244e+05 1.013231e+05 1.013243e+05 1.013245e+05 1.013245e+05 1.013241e+05 1.013240e+05 1.013234e+05 1.013238e+05 1.013238e+05 1.013235e+05 1.013244e+05 1.013244e+05 1.013244e+05 1.013242e+05 1.013230e+05 1.013234e+05 1.013244e+05 1.013226e+05 1.013232e+05 1.013232e+05 1.013245e+05 1.013245e+05 1.013249e+05 1.013249e+05 1.013233e+05 1.013247e+05 1.013247e+05 1.013247e+05 1.013245e+05 1.013245e+05 1.013247e+05 1.013247e+05 1.013237e+05 1.013246e+05 1.013247e+05 1.013248e+05 1.013248e+05 1.013235e+05 1.013243e+05 1.013243e+05 1.013245e+05 1.013245e+05 1.013245e+05 1.013239e+05 1.013239e+05 1.013241e+05 1.013247e+05 1.013247e+05 1.013249e+05 1.013248e+05 1.013247e+05 1.013243e+05 1.013246e+05 1.013243e+05 1.013244e+05 1.013245e+05 1.013245e+05 1.013248e+05 1.013249e+05 1.013249e+05 1.013249e+05 1.013248e+05 1.013248e+05 1.013248e+05 1.013248e+05 1.013248e+05 1.013247e+05 1.013246e+05 1.013246e+05 1.013246e+05 1.013249e+05 1.013241e+05 1.013249e+05 1.013249e+05 1.013248e+05 1.013243e+05 1.013239e+05 1.013242e+05 1.013246e+05 1.013250e+05 1.013250e+05 1.013246e+05 1.013244e+05 1.013249e+05 1.013242e+05 1.013247e+05 1.013247e+05 1.013247e+05 1.013249e+05 1.013249e+05 1.013249e+05 1.013249e+05 1.013249e+05 1.013249e+05 1.013249e+05 1.013246e+05 1.013250e+05 1.013250e+05 1.013248e+05 1.013249e+05 1.013249e+05 1.013250e+05 1.013250e+05 1.013243e+05 1.013249e+05 1.013249e+05 1.013249e+05 1.013249e+05 1.013249e+05 1.013238e+05 1.013248e+05 1.013247e+05 1.013250e+05 1.013250e+05 1.013250e+05 1.013250e+05 1.013250e+05 1.013250e+05 1.013250e+05 1.013250e+05 1.013248e+05 1.013246e+05 1.013247e+05 1.013249e+05 1.013249e+05 1.013249e+05 1.013250e+05 1.013249e+05 1.013249e+05 1.013249e+05 1.013249e+05 1.013249e+05 1.013249e+05 1.013249e+05 1.013249e+05 1.013249e+05 1.013250e+05 1.013250e+05 1.013249e+05 1.013249e+05 1.013250e+05 1.013250e+05 1.013250e+05 1.013250e+05 1.013246e+05 1.013246e+05 1.013250e+05 1.013250e+05 1.013250e+05 1.013250e+05 1.013250e+05 1.013250e+05 1.013250e+05 1.013250e+05 1.013247e+05 1.013247e+05 1.013249e+05 1.013249e+05 1.013250e+05 1.013249e+05 1.013249e+05 1.013250e+05 1.013250e+05 1.013245e+05 1.013250e+05 1.013250e+05 1.013250e+05 1.013250e+05 1.013250e+05 1.013250e+05 1.013249e+05 1.013247e+05 1.013249e+05 1.013249e+05 1.013250e+05 1.013250e+05 1.013248e+05 1.013250e+05 1.013250e+05 1.013249e+05 1.013250e+05 1.013250e+05 1.013250e+05 1.013250e+05 1.013250e+05 1.013250e+05 1.013250e+05 1.013249e+05 1.013249e+05 1.013250e+05 1.013250e+05 1.013250e+05 1.013250e+05 1.013250e+05 1.013250e+05 1.013250e+05 1.013250e+05 1.013250e+05 1.013250e+05 1.013250e+05 1.013250e+05 1.013250e+05 1.013250e+05 1.013250e+05 1.013250e+05 1.013250e+05 1.013250e+05 1.013252e+05 1.013258e+05 1.013271e+05 1.013250e+05 1.013250e+05 1.013250e+05 1.013250e+05 1.013252e+05 1.013249e+05 1.013250e+05 1.013250e+05 1.013250e+05 1.013250e+05 1.013250e+05 1.013249e+05 1.013249e+05 1.013249e+05 1.013249e+05 1.013259e+05 1.013259e+05 1.013259e+05 1.013259e+05 1.013259e+05 1.013250e+05 1.013250e+05 1.013250e+05 1.013250e+05 1.013250e+05 1.013256e+05 1.013250e+05 1.013250e+05 1.013250e+05 1.013250e+05 1.013250e+05 1.013250e+05 1.013249e+05 1.013250e+05 1.013250e+05 1.013250e+05 1.013250e+05 1.013250e+05 1.013250e+05 1.013250e+05 1.013250e+05 1.013250e+05 1.013250e+05 1.013250e+05 1.013258e+05 1.013262e+05 1.013258e+05 1.013258e+05 1.013250e+05 1.013250e+05 1.013269e+05 1.013273e+05 1.013269e+05 1.013269e+05 1.013250e+05 1.013250e+05 1.013250e+05 1.013250e+05 1.013250e+05 1.013251e+05 1.013251e+05 1.013250e+05 1.013281e+05 1.013250e+05 1.013250e+05 1.013250e+05 1.013250e+05 1.013250e+05 1.013265e+05 1.013221e+05 1.013221e+05 1.013221e+05 1.013221e+05 1.013241e+05 1.013241e+05 1.013241e+05 1.013242e+05 1.013242e+05 1.013249e+05 1.013249e+05 1.013249e+05 1.013248e+05 1.013248e+05 1.013236e+05 1.013236e+05 1.013236e+05 1.013235e+05 1.013248e+05 1.013248e+05 1.013248e+05 1.013248e+05 1.013242e+05 1.013242e+05 1.013242e+05 1.013242e+05 1.013242e+05 1.013242e+05 1.013228e+05 1.013228e+05 1.013228e+05 1.013228e+05 1.013228e+05 1.013236e+05 1.013236e+05 1.013238e+05 1.013238e+05 1.013238e+05 1.013226e+05 1.013226e+05 1.013226e+05 1.013220e+05 1.013220e+05 1.013220e+05 1.013248e+05 1.013248e+05 1.013247e+05 1.013247e+05 1.013249e+05 1.013249e+05 1.013249e+05 1.013249e+05 1.013203e+05 1.013203e+05 1.013203e+05 1.013243e+05 1.013243e+05 1.013243e+05 1.013222e+05 1.013222e+05 1.013222e+05 1.013238e+05 1.013238e+05 1.013238e+05 1.013215e+05 1.013215e+05 1.013215e+05 1.013212e+05 1.013212e+05 1.013202e+05 1.013202e+05 1.013194e+05 1.013194e+05 1.013194e+05 1.013218e+05 1.013218e+05 1.013218e+05 1.013231e+05 1.013231e+05 1.013231e+05 1.013227e+05 1.013218e+05 1.013248e+05 1.013248e+05 1.013248e+05 1.013245e+05 1.013245e+05 1.013245e+05 1.013239e+05 1.013239e+05 1.013255e+05 1.013255e+05 1.013254e+05 1.013244e+05 1.013244e+05 1.013244e+05 1.013244e+05 1.013244e+05 1.013244e+05 1.013225e+05 1.013228e+05 1.013237e+05 1.013237e+05 1.013237e+05 1.013247e+05 1.013247e+05 1.013247e+05 1.013238e+05 1.013214e+05 1.013218e+05 1.013218e+05 1.013218e+05 1.013195e+05 1.013195e+05 1.013195e+05 1.013224e+05 1.013224e+05 1.013227e+05 1.013227e+05 1.013236e+05 1.013239e+05 1.013239e+05 1.013248e+05 1.013248e+05 1.013248e+05 1.013247e+05 1.013249e+05 1.013249e+05 1.013250e+05 1.013250e+05 1.013250e+05 1.013189e+05 1.013208e+05 1.013208e+05 1.013208e+05 1.013196e+05 1.013196e+05 1.013193e+05 1.013231e+05 1.013231e+05 1.013197e+05 1.013197e+05 1.013223e+05 1.013223e+05 1.013223e+05 1.013192e+05 1.013200e+05 1.013200e+05 1.013200e+05 1.013213e+05 1.013213e+05 1.013213e+05 1.013202e+05 1.013202e+05 1.013218e+05 1.013218e+05 1.013218e+05 1.013219e+05 1.013205e+05 1.013205e+05 1.013205e+05 1.013214e+05 1.013214e+05 1.013214e+05 1.013190e+05 1.013190e+05 1.013190e+05 1.013193e+05 1.013193e+05 1.013193e+05 1.013208e+05 1.013208e+05 1.013208e+05 1.013208e+05 1.013199e+05 1.013199e+05 1.013211e+05 1.013193e+05 1.013193e+05 1.013230e+05 1.013230e+05 1.013230e+05 1.013203e+05 1.013196e+05 1.013195e+05 1.013216e+05 1.013216e+05 1.013232e+05 1.013232e+05 1.013232e+05 1.013229e+05 1.013226e+05 1.013245e+05 1.013245e+05 1.013245e+05 1.013197e+05 1.013236e+05 1.013236e+05 1.013236e+05 1.013222e+05 1.013222e+05 1.013222e+05 1.013205e+05 1.013246e+05 1.013246e+05 1.013246e+05 1.013232e+05 1.013228e+05 1.013228e+05 1.013228e+05 1.013230e+05 1.013199e+05 1.013195e+05 1.013246e+05 1.013246e+05 1.013246e+05 1.013209e+05 1.013209e+05 1.013200e+05 1.013200e+05 1.013205e+05 1.013207e+05 1.013238e+05 1.013210e+05 1.013223e+05 1.013223e+05 1.013240e+05 1.013240e+05 1.013240e+05 1.013247e+05 1.013247e+05 1.013247e+05 1.013235e+05 1.013235e+05 1.013235e+05 1.013247e+05 1.013247e+05 1.013222e+05 1.013222e+05 1.013225e+05 1.013225e+05 1.013232e+05 1.013232e+05 1.013232e+05 1.013213e+05 1.013213e+05 1.013203e+05 1.013203e+05 1.013231e+05 1.013231e+05 1.013205e+05 1.013205e+05 1.013205e+05 1.013219e+05 1.013247e+05 1.013247e+05 1.013236e+05 1.013234e+05 1.013234e+05 1.013234e+05 1.013209e+05 1.013217e+05 1.013240e+05 1.013240e+05 1.013240e+05 1.013241e+05 1.013241e+05 1.013230e+05 1.013230e+05 1.013230e+05 1.013210e+05 1.013243e+05 1.013243e+05 1.013243e+05 1.013229e+05 1.013233e+05 1.013241e+05 1.013244e+05 1.013244e+05 1.013245e+05 1.013245e+05 1.013234e+05 1.013240e+05 1.013240e+05 1.013240e+05 1.013236e+05 1.013222e+05 1.013222e+05 1.013241e+05 1.013241e+05 1.013242e+05 1.013242e+05 1.013248e+05 1.013248e+05 1.013232e+05 1.013218e+05 1.013244e+05 1.013244e+05 1.013244e+05 1.013224e+05 1.013226e+05 1.013249e+05 1.013249e+05 1.013249e+05 1.013240e+05 1.013231e+05 1.013231e+05 1.013229e+05 1.013249e+05 1.013249e+05 1.013249e+05 1.013242e+05 1.013228e+05 1.013231e+05 1.013249e+05 1.013249e+05 1.013246e+05 1.013246e+05 1.013246e+05 1.013247e+05 1.013247e+05 1.013247e+05 1.013234e+05 1.013237e+05 1.013249e+05 1.013249e+05 1.013249e+05 1.013244e+05 1.013244e+05 1.013244e+05 1.013244e+05 1.013249e+05 1.013249e+05 1.013249e+05 1.013241e+05 1.013251e+05 1.013245e+05 1.013247e+05 1.013247e+05 1.013240e+05 1.013240e+05 1.013241e+05 1.013250e+05 1.013250e+05 1.013250e+05 1.013249e+05 1.013250e+05 1.013250e+05 1.013250e+05 1.013247e+05 1.013246e+05 1.013246e+05 1.013245e+05 1.013246e+05 1.013251e+05 1.013251e+05 1.013242e+05 1.013242e+05 1.013249e+05 1.013249e+05 1.013249e+05 1.013249e+05 1.013246e+05 1.013246e+05 1.013245e+05 1.013244e+05 1.013250e+05 1.013250e+05 1.013252e+05 1.013250e+05 1.013250e+05 1.013247e+05 1.013250e+05 1.013249e+05 1.013249e+05 1.013249e+05 1.013249e+05 1.013249e+05 1.013249e+05 1.013249e+05 1.013265e+05 1.013265e+05 1.013249e+05 1.013249e+05 1.013250e+05 1.013250e+05 1.013250e+05 1.013250e+05 1.013250e+05 1.013250e+05 1.013250e+05 1.013247e+05 1.013241e+05 1.013244e+05 1.013244e+05 1.013244e+05 1.013250e+05 1.013245e+05 1.013244e+05 1.013244e+05 1.013189e+05 1.013189e+05 1.013248e+05 1.013238e+05 1.013249e+05 1.013249e+05 1.013247e+05 1.013245e+05 1.013242e+05 1.013242e+05 1.013227e+05 1.013237e+05 1.013207e+05 1.013246e+05 1.013250e+05 1.013250e+05 1.013250e+05 1.013250e+05 1.013189e+05 1.013189e+05 1.013191e+05 1.013193e+05 1.013193e+05 1.013182e+05 1.013183e+05 1.013182e+05 1.013190e+05 1.013208e+05 1.013184e+05 1.013187e+05 1.013187e+05 1.013187e+05 1.013197e+05 1.013200e+05 1.013200e+05 1.013200e+05 1.013200e+05 1.013200e+05 1.013185e+05 1.013210e+05 1.013210e+05 1.013203e+05 1.013204e+05 1.013196e+05 1.013196e+05 1.013206e+05 1.013223e+05 1.013211e+05 1.013205e+05 1.013214e+05 1.013186e+05 1.013186e+05 1.013202e+05 1.013184e+05 1.013206e+05 1.013192e+05 1.013190e+05 1.013217e+05 1.013217e+05 1.013224e+05 1.013216e+05 1.013224e+05 1.013210e+05 1.013202e+05 1.013199e+05 1.013215e+05 1.013219e+05 1.013219e+05 1.013219e+05 1.013219e+05 1.013206e+05 1.013208e+05 1.013203e+05 1.013203e+05 1.013212e+05 1.013234e+05 1.013234e+05 1.013212e+05 1.013201e+05 1.013214e+05 1.013219e+05 1.013230e+05 1.013230e+05 1.013210e+05 1.013210e+05 1.013210e+05 1.013225e+05 1.013225e+05 1.013209e+05 1.013226e+05 1.013220e+05 1.013233e+05 1.013233e+05 1.013233e+05 1.013213e+05 1.013232e+05 1.013232e+05 1.013224e+05 1.013220e+05 1.013241e+05 1.013241e+05 1.013226e+05 1.013228e+05 1.013228e+05 1.013240e+05 1.013229e+05 1.013205e+05 1.013224e+05 1.013231e+05 1.013227e+05 1.013227e+05 1.013238e+05 1.013238e+05 1.013238e+05 1.013216e+05 1.013237e+05 1.013235e+05 1.013215e+05 1.013217e+05 1.013228e+05 1.013229e+05 1.013235e+05 1.013236e+05 1.013236e+05 1.013224e+05 1.013224e+05 1.013222e+05 1.013221e+05 1.013210e+05 1.013226e+05 1.013230e+05 1.013217e+05 1.013223e+05 1.013239e+05 1.013237e+05 1.013237e+05 1.013237e+05 1.013242e+05 1.013221e+05 1.013234e+05 1.013234e+05 1.013243e+05 1.013238e+05 1.013245e+05 1.013245e+05 1.013243e+05 1.013239e+05 1.013240e+05 1.013240e+05 1.013246e+05 1.013244e+05 1.013244e+05 1.013241e+05 1.013238e+05 1.013243e+05 1.013245e+05 1.013236e+05 1.013233e+05 1.013234e+05 1.013239e+05 1.013233e+05 1.013246e+05 1.013244e+05 1.013244e+05 1.013244e+05 1.013243e+05 1.013237e+05 1.013247e+05 1.013247e+05 1.013247e+05 1.013247e+05 1.013229e+05 1.013245e+05 1.013245e+05 1.013248e+05 1.013248e+05 1.013248e+05 1.013239e+05 1.013249e+05 1.013240e+05 1.013245e+05 1.013246e+05 1.013239e+05 1.013247e+05 1.013235e+05 1.013246e+05 1.013246e+05 1.013248e+05 1.013243e+05 1.013249e+05 1.013249e+05 1.013249e+05 1.013248e+05 1.013243e+05 1.013234e+05 1.013249e+05 1.013242e+05 1.013248e+05 1.013248e+05 1.013249e+05 1.013248e+05 1.013248e+05 1.013249e+05 1.013249e+05 1.013244e+05 1.013249e+05 1.013247e+05 1.013247e+05 1.013246e+05 1.013249e+05 1.013249e+05 1.013225e+05 1.013249e+05 1.013248e+05 1.013250e+05 1.013246e+05 1.013250e+05 1.013250e+05 1.013249e+05 1.013249e+05 1.013245e+05 1.013245e+05 1.013250e+05 1.013250e+05 1.013250e+05 1.013247e+05 1.013249e+05 1.013248e+05 1.013236e+05 1.013249e+05 1.013249e+05 1.013234e+05 1.013250e+05 1.013250e+05 1.013249e+05 1.013242e+05 1.013249e+05 1.013249e+05 1.013249e+05 1.013249e+05 1.013249e+05 1.013250e+05 1.013250e+05 1.013248e+05 1.013248e+05 1.013250e+05 1.013249e+05 1.013248e+05 1.013248e+05 1.013248e+05 1.013249e+05 1.013250e+05 1.013250e+05 1.013250e+05 1.013250e+05 1.013250e+05 1.013250e+05 1.013249e+05 1.013249e+05 1.013250e+05 1.013250e+05 1.013250e+05 1.013250e+05 1.013250e+05 1.013250e+05 1.013250e+05 1.013250e+05 1.013250e+05 1.013248e+05 1.013250e+05 1.013250e+05 1.013248e+05 1.013249e+05 1.013249e+05 1.013250e+05 1.013250e+05 1.013250e+05 1.013250e+05 1.013250e+05 1.013249e+05 1.013250e+05 1.013250e+05 1.013250e+05 1.013250e+05 1.013242e+05 1.013250e+05 1.013250e+05 1.013250e+05 1.013250e+05 1.013250e+05 1.013250e+05 1.013250e+05 1.013250e+05 1.013245e+05 1.013250e+05 1.013250e+05 1.013250e+05 1.013250e+05 1.013250e+05 1.013250e+05 1.013247e+05 1.013247e+05 1.013250e+05 1.013250e+05 1.013250e+05 1.013250e+05 1.013250e+05 1.013249e+05 1.013248e+05 1.013250e+05 1.013250e+05 1.013250e+05 1.013250e+05 1.013250e+05 1.013250e+05 1.013250e+05 1.013250e+05 1.013182e+05 1.013183e+05 1.013185e+05 1.013188e+05 1.013189e+05 1.013191e+05 1.013191e+05 1.013193e+05 1.013195e+05 1.013197e+05 1.013197e+05 1.013200e+05 1.013200e+05 1.013203e+05 1.013203e+05 1.013204e+05 1.013206e+05 1.013207e+05 1.013209e+05 1.013210e+05 1.013211e+05 1.013213e+05 1.013214e+05 1.013214e+05 1.013216e+05 1.013217e+05 1.013218e+05 1.013219e+05 1.013221e+05 1.013221e+05 1.013222e+05 1.013223e+05 1.013224e+05 1.013225e+05 1.013226e+05 1.013226e+05 1.013228e+05 1.013229e+05 1.013230e+05 1.013230e+05 1.013231e+05 1.013231e+05 1.013232e+05 1.013233e+05 1.013234e+05 1.013234e+05 1.013235e+05 1.013236e+05 1.013236e+05 1.013237e+05 1.013237e+05 1.013238e+05 1.013239e+05 1.013239e+05 1.013240e+05 1.013240e+05 1.013241e+05 1.013241e+05 1.013242e+05 1.013242e+05 1.013243e+05 1.013243e+05 1.013243e+05 1.013243e+05 1.013244e+05 1.013244e+05 1.013245e+05 1.013245e+05 1.013245e+05 1.013246e+05 1.013246e+05 1.013246e+05 1.013246e+05 1.013247e+05 1.013247e+05 1.013247e+05 1.013247e+05 1.013247e+05 1.013248e+05 1.013248e+05 1.013248e+05 1.013248e+05 1.013248e+05 1.013248e+05 1.013249e+05 1.013249e+05 1.013249e+05 1.013249e+05 1.013249e+05 1.013249e+05 1.013249e+05 1.013249e+05 1.013249e+05 1.013249e+05 1.013249e+05 1.013249e+05 1.013249e+05 1.013249e+05 1.013249e+05 1.013250e+05 1.013250e+05 1.013250e+05 1.013250e+05 1.013250e+05 1.013250e+05 1.013250e+05 1.013250e+05 1.013250e+05 1.013250e+05 1.013250e+05 1.013250e+05 1.013250e+05 1.013250e+05 1.013250e+05 1.013250e+05 1.013250e+05 1.013250e+05 1.013250e+05 1.013250e+05 1.013250e+05 1.013250e+05 1.013250e+05 1.013250e+05 1.013250e+05 1.013250e+05 1.013250e+05 1.013250e+05 1.013250e+05 1.013250e+05 1.013250e+05 1.013254e+05 1.013263e+05 1.013263e+05 1.013263e+05 1.013245e+05 1.013245e+05 1.013245e+05 1.013245e+05 1.013245e+05 1.013250e+05 1.013250e+05 1.013239e+05 1.013239e+05 1.013239e+05 1.013243e+05 1.013243e+05 1.013249e+05 1.013249e+05 1.013249e+05 1.013251e+05 1.013254e+05 1.013254e+05 1.013253e+05 1.013250e+05 1.013250e+05 1.013250e+05 1.013250e+05 1.013250e+05 1.013250e+05 1.013250e+05 1.013250e+05 1.013250e+05 1.013250e+05 1.013250e+05 1.013250e+05 1.013250e+05 1.013250e+05 1.013250e+05 1.013250e+05 1.013250e+05 1.013250e+05 1.013241e+05 1.013241e+05 1.013241e+05 1.013239e+05 1.013239e+05 1.013237e+05 1.013220e+05 1.013220e+05 1.013220e+05 1.013220e+05 1.013220e+05 1.013244e+05 1.013234e+05 1.013234e+05 1.013235e+05 1.013221e+05 1.013221e+05 1.013221e+05 1.013234e+05 1.013234e+05 1.013234e+05 1.013181e+05 1.013181e+05 1.013181e+05 1.013187e+05 1.013187e+05 1.013187e+05 1.013245e+05 1.013245e+05 1.013245e+05 1.013208e+05 1.013208e+05 1.013208e+05 1.013228e+05 1.013228e+05 1.013228e+05 1.013229e+05 1.013205e+05 1.013205e+05 1.013220e+05 1.013220e+05 1.013220e+05 1.013183e+05 1.013185e+05 1.013219e+05 1.013219e+05 1.013240e+05 1.013240e+05 1.013240e+05 1.013242e+05 1.013242e+05 1.013239e+05 1.013242e+05 1.013242e+05 1.013254e+05 1.013254e+05 1.013254e+05 1.013247e+05 1.013247e+05 1.013214e+05 1.013214e+05 1.013214e+05 1.013218e+05 1.013199e+05 1.013209e+05 1.013227e+05 1.013227e+05 1.013223e+05 1.013223e+05 1.013223e+05 1.013203e+05 1.013199e+05 1.013199e+05 1.013212e+05 1.013212e+05 1.013212e+05 1.013243e+05 1.013243e+05 1.013243e+05 1.013219e+05 1.013219e+05 1.013219e+05 1.013254e+05 1.013250e+05 1.013183e+05 1.013183e+05 1.013183e+05 1.013187e+05 1.013234e+05 1.013234e+05 1.013189e+05 1.013225e+05 1.013225e+05 1.013225e+05 1.013185e+05 1.013185e+05 1.013226e+05 1.013226e+05 1.013216e+05 1.013216e+05 1.013216e+05 1.013200e+05 1.013200e+05 1.013200e+05 1.013201e+05 1.013201e+05 1.013201e+05 1.013187e+05 1.013187e+05 1.013227e+05 1.013227e+05 1.013191e+05 1.013191e+05 1.013191e+05 1.013226e+05 1.013231e+05 1.013231e+05 1.013231e+05 1.013188e+05 1.013227e+05 1.013227e+05 1.013213e+05 1.013213e+05 1.013213e+05 1.013235e+05 1.013235e+05 1.013235e+05 1.013201e+05 1.013205e+05 1.013205e+05 1.013205e+05 1.013195e+05 1.013195e+05 1.013195e+05 1.013185e+05 1.013186e+05 1.013210e+05 1.013210e+05 1.013210e+05 1.013212e+05 1.013212e+05 1.013234e+05 1.013234e+05 1.013234e+05 1.013190e+05 1.013190e+05 1.013190e+05 1.013190e+05 1.013191e+05 1.013190e+05 1.013190e+05 1.013230e+05 1.013230e+05 1.013230e+05 1.013195e+05 1.013195e+05 1.013210e+05 1.013210e+05 1.013182e+05 1.013193e+05 1.013193e+05 1.013203e+05 1.013203e+05 1.013203e+05 1.013222e+05 1.013193e+05 1.013200e+05 1.013200e+05 1.013226e+05 1.013226e+05 1.013223e+05 1.013223e+05 1.013223e+05 1.013213e+05 1.013213e+05 1.013241e+05 1.013241e+05 1.013241e+05 1.013236e+05 1.013236e+05 1.013236e+05 1.013219e+05 1.013189e+05 1.013233e+05 1.013233e+05 1.013233e+05 1.013210e+05 1.013210e+05 1.013210e+05 1.013205e+05 1.013205e+05 1.013189e+05 1.013213e+05 1.013237e+05 1.013237e+05 1.013237e+05 1.013216e+05 1.013216e+05 1.013239e+05 1.013239e+05 1.013239e+05 1.013218e+05 1.013218e+05 1.013218e+05 1.013216e+05 1.013242e+05 1.013242e+05 1.013242e+05 1.013218e+05 1.013209e+05 1.013209e+05 1.013214e+05 1.013230e+05 1.013230e+05 1.013216e+05 1.013221e+05 1.013221e+05 1.013223e+05 1.013223e+05 1.013220e+05 1.013213e+05 1.013235e+05 1.013235e+05 1.013235e+05 1.013224e+05 1.013242e+05 1.013242e+05 1.013200e+05 1.013224e+05 1.013224e+05 1.013225e+05 1.013246e+05 1.013246e+05 1.013246e+05 1.013240e+05 1.013240e+05 1.013227e+05 1.013227e+05 1.013228e+05 1.013228e+05 1.013217e+05 1.013239e+05 1.013239e+05 1.013239e+05 1.013233e+05 1.013233e+05 1.013233e+05 1.013209e+05 1.013239e+05 1.013239e+05 1.013233e+05 1.013233e+05 1.013203e+05 1.013215e+05 1.013220e+05 1.013220e+05 1.013243e+05 1.013243e+05 1.013243e+05 1.013229e+05 1.013248e+05 1.013248e+05 1.013248e+05 1.013232e+05 1.013232e+05 1.013229e+05 1.013220e+05 1.013246e+05 1.013246e+05 1.013246e+05 1.013244e+05 1.013244e+05 1.013244e+05 1.013245e+05 1.013245e+05 1.013242e+05 1.013242e+05 1.013241e+05 1.013241e+05 1.013240e+05 1.013224e+05 1.013224e+05 1.013229e+05 1.013229e+05 1.013236e+05 1.013236e+05 1.013223e+05 1.013248e+05 1.013248e+05 1.013248e+05 1.013248e+05 1.013235e+05 1.013244e+05 1.013244e+05 1.013237e+05 1.013237e+05 1.013241e+05 1.013226e+05 1.013235e+05 1.013240e+05 1.013240e+05 1.013242e+05 1.013242e+05 1.013233e+05 1.013248e+05 1.013248e+05 1.013248e+05 1.013249e+05 1.013249e+05 1.013249e+05 1.013237e+05 1.013237e+05 1.013237e+05 1.013235e+05 1.013235e+05 1.013250e+05 1.013250e+05 1.013250e+05 1.013248e+05 1.013248e+05 1.013248e+05 1.013244e+05 1.013249e+05 1.013249e+05 1.013249e+05 1.013245e+05 1.013245e+05 1.013238e+05 1.013248e+05 1.013248e+05 1.013250e+05 1.013250e+05 1.013250e+05 1.013239e+05 1.013239e+05 1.013243e+05 1.013243e+05 1.013246e+05 1.013246e+05 1.013246e+05 1.013249e+05 1.013249e+05 1.013249e+05 1.013246e+05 1.013249e+05 1.013249e+05 1.013249e+05 1.013250e+05 1.013250e+05 1.013250e+05 1.013247e+05 1.013247e+05 1.013247e+05 1.013246e+05 1.013247e+05 1.013247e+05 1.013247e+05 1.013243e+05 1.013243e+05 1.013250e+05 1.013248e+05 1.013248e+05 1.013248e+05 1.013250e+05 1.013250e+05 1.013250e+05 1.013247e+05 1.013247e+05 1.013247e+05 1.013249e+05 1.013249e