FoamFile
{
    version     2.0;
    format      ascii;
    class       polyBoundaryMesh;
    location    "constant/polyMesh";
    object      boundary;
}

4         
(
    invwall
    {
        type Unspecified;
        nFaces 27206;
        startFace 20175;
    }
    subinlet
    {
        type Unspecified;
        nFaces 8;
        startFace 47381;
    }
    suboutlet
    {
        type Unspecified;
        nFaces 8;
        startFace 47389;
    }
    viswall
    {
        type Unspecified;
        nFaces 398;
        startFace 47397;
    }
)
