FoamFile
{
    version     2.0;
    format      ascii;
    class       polyBoundaryMesh;
    location    "constant/polyMesh";
    object      boundary;
}

5         
(
    invwall
    {
        type Unspecified;
        nFaces 16065;
        startFace 13576;
    }
    liqinj
    {
        type Unspecified;
        nFaces 9;
        startFace 29641;
    }
    subinlet
    {
        type Unspecified;
        nFaces 19;
        startFace 29650;
    }
    suboutlet
    {
        type Unspecified;
        nFaces 19;
        startFace 29669;
    }
    viswall
    {
        type Unspecified;
        nFaces 183;
        startFace 29688;
    }
)
