<?xml version="1.0"?>
 <VTKFile type="UnstructuredGrid" version="1.0" byte_order="LittleEndian" header_type="UInt64">
  <UnstructuredGrid>
    <FieldData>
     <DataArray type="Float64" Name="TimeValue" NumberOfTuples="1" format="ascii">
0.00011
     </DataArray>
    </FieldData>
   <Piece NumberOfPoints="3632" NumberOfCells="3379">
    <PointData>
     <DataArray type="Float64" Name="pointP" format="ascii">
1.445832e+05 1.445832e+05 1.444514e+05 1.442512e+05 1.441562e+05 1.440404e+05 1.438541e+05 1.436353e+05 1.434563e+05 1.432675e+05 1.430658e+05 1.428561e+05 1.426352e+05 1.424057e+05 1.422049e+05 1.418676e+05 1.416463e+05 1.414367e+05 1.411428e+05 1.408533e+05 1.405961e+05 1.402865e+05 1.399752e+05 1.396472e+05 1.393062e+05 1.389170e+05 1.385827e+05 1.382661e+05 1.379099e+05 1.374849e+05 1.371532e+05 1.367405e+05 1.363600e+05 1.358948e+05 1.354138e+05 1.350889e+05 1.346706e+05 1.342322e+05 1.337137e+05 1.333053e+05 1.328516e+05 1.323739e+05 1.319406e+05 1.314101e+05 1.309001e+05 1.304442e+05 1.299910e+05 1.295062e+05 1.288638e+05 1.282629e+05 1.277723e+05 1.272406e+05 1.266987e+05 1.262049e+05 1.255948e+05 1.251034e+05 1.245572e+05 1.240255e+05 1.234600e+05 1.228896e+05 1.223352e+05 1.217692e+05 1.211363e+05 1.205816e+05 1.200110e+05 1.193916e+05 1.187035e+05 1.181437e+05 1.175672e+05 1.169874e+05 1.163260e+05 1.157274e+05 1.151213e+05 1.145200e+05 1.138477e+05 1.132559e+05 1.125885e+05 1.119527e+05 1.113015e+05 1.107341e+05 1.100045e+05 1.093411e+05 1.086936e+05 1.080229e+05 1.074226e+05 1.068013e+05 1.061780e+05 1.055497e+05 1.048433e+05 1.041810e+05 1.035437e+05 1.029020e+05 1.023561e+05 1.016662e+05 1.010163e+05 1.004302e+05 9.975572e+04 9.912715e+04 9.851989e+04 9.776324e+04 9.716308e+04 9.654947e+04 9.599095e+04 9.527438e+04 9.466922e+04 9.407011e+04 9.346646e+04 9.282061e+04 9.221784e+04 9.164124e+04 9.106609e+04 9.047760e+04 8.989743e+04 8.921567e+04 8.862164e+04 8.795868e+04 8.737153e+04 8.683396e+04 8.624074e+04 8.566122e+04 8.512840e+04 8.457762e+04 8.400512e+04 8.345005e+04 8.291722e+04 8.233537e+04 8.185801e+04 8.128949e+04 8.073868e+04 8.025600e+04 7.978084e+04 7.914567e+04 7.869548e+04 7.822648e+04 7.781453e+04 7.727346e+04 7.679634e+04 7.640120e+04 7.586400e+04 7.547512e+04 7.506908e+04 7.453563e+04 7.414366e+04 7.371307e+04 7.326522e+04 7.289157e+04 7.250445e+04 7.208851e+04 7.168279e+04 7.138018e+04 7.104295e+04 7.061435e+04 7.025554e+04 6.993098e+04 6.956702e+04 6.926499e+04 6.899677e+04 6.857453e+04 6.830141e+04 6.800691e+04 6.774940e+04 6.743530e+04 6.719464e+04 6.692018e+04 6.666853e+04 6.646320e+04 6.626159e+04 6.607650e+04 6.587440e+04 6.571595e+04 6.544937e+04 6.527505e+04 6.510336e+04 6.495925e+04 6.484367e+04 6.466556e+04 6.455046e+04 6.442492e+04 6.428914e+04 6.420076e+04 6.414140e+04 1.025430e+05 1.025430e+05 1.025430e+05 1.041819e+05 1.041819e+05 1.041819e+05 1.045737e+05 1.042483e+05 1.063394e+05 1.052024e+05 1.086055e+05 1.086055e+05 1.086055e+05 1.085516e+05 9.653477e+04 9.653477e+04 9.653477e+04 9.646970e+04 9.712525e+04 1.315825e+05 1.315825e+05 1.315825e+05 1.314903e+05 1.311516e+05 1.311516e+05 1.311516e+05 1.303424e+05 9.939315e+04 9.939315e+04 9.939315e+04 1.000378e+05 1.005805e+05 1.005566e+05 7.876237e+04 7.876237e+04 7.876237e+04 7.779393e+04 7.779393e+04 1.302647e+05 1.302647e+05 1.302647e+05 1.297017e+05 7.295367e+04 7.295367e+04 7.295367e+04 7.206501e+04 7.206501e+04 1.425883e+05 1.425883e+05 1.425883e+05 1.136966e+05 1.136966e+05 1.136966e+05 1.140831e+05 1.076138e+05 1.076138e+05 1.076138e+05 1.278962e+05 1.278962e+05 1.278962e+05 1.278859e+05 8.021931e+04 8.021931e+04 8.027934e+04 8.027934e+04 1.159505e+05 1.159505e+05 1.164305e+05 1.288708e+05 1.288708e+05 1.288708e+05 1.294849e+05 1.294849e+05 6.863843e+04 6.863843e+04 6.863843e+04 6.946708e+04 6.946708e+04 9.906007e+04 9.906007e+04 9.906007e+04 9.811894e+04 9.811894e+04 1.325547e+05 1.325547e+05 1.167954e+05 1.167954e+05 1.167954e+05 1.169407e+05 1.077362e+05 1.077362e+05 1.077362e+05 1.074710e+05 1.075285e+05 1.181440e+05 1.181440e+05 1.181440e+05 1.146589e+05 1.146589e+05 1.149015e+05 1.350889e+05 1.353230e+05 1.353230e+05 6.495925e+04 6.546354e+04 6.546354e+04 1.070925e+05 8.291722e+04 8.333698e+04 1.075937e+05 1.039594e+05 1.039594e+05 1.039594e+05 1.045744e+05 9.868025e+04 1.039227e+05 1.039227e+05 1.039227e+05 1.049857e+05 1.049857e+05 9.550418e+04 9.550418e+04 9.550418e+04 9.639469e+04 8.827661e+04 8.827661e+04 8.827661e+04 8.810153e+04 1.304636e+05 1.302418e+05 1.292764e+05 1.325276e+05 1.325276e+05 1.054603e+05 1.054603e+05 1.054603e+05 1.060518e+05 1.205412e+05 1.205412e+05 1.205412e+05 1.212709e+05 1.212709e+05 1.205883e+05 8.407868e+04 8.407868e+04 8.407868e+04 8.367114e+04 8.822666e+04 8.822666e+04 8.822666e+04 8.901641e+04 8.947569e+04 1.155581e+05 1.155581e+05 1.155581e+05 1.156239e+05 7.126794e+04 6.924540e+04 9.471959e+04 9.471959e+04 9.471959e+04 9.545112e+04 7.959554e+04 7.959554e+04 7.959554e+04 7.986443e+04 1.253815e+05 1.253815e+05 1.253815e+05 1.263028e+05 1.263028e+05 7.540642e+04 7.540642e+04 7.540642e+04 7.580069e+04 1.250604e+05 1.250604e+05 1.250604e+05 1.247983e+05 1.303755e+05 1.303755e+05 1.303755e+05 1.303517e+05 8.411967e+04 8.411967e+04 8.405784e+04 1.082303e+05 1.082303e+05 1.099148e+05 1.099148e+05 1.099148e+05 1.047080e+05 1.047080e+05 1.047080e+05 1.044232e+05 6.525476e+04 6.525476e+04 6.525476e+04 6.516544e+04 6.516544e+04 1.391054e+05 1.391054e+05 1.391054e+05 1.387231e+05 1.387231e+05 1.086635e+05 1.241568e+05 1.241568e+05 1.245607e+05 6.471107e+04 6.471107e+04 6.471107e+04 6.464708e+04 6.990211e+04 6.990211e+04 7.031152e+04 7.031152e+04 1.333586e+05 1.333586e+05 1.336615e+05 1.288406e+05 1.288406e+05 6.832691e+04 6.832691e+04 6.871720e+04 6.871720e+04 1.266855e+05 1.266855e+05 1.266855e+05 1.264210e+05 1.072467e+05 1.068725e+05 1.155875e+05 1.155875e+05 1.155875e+05 1.151978e+05 1.195547e+05 1.195547e+05 1.195547e+05 1.188437e+05 1.188437e+05 6.702196e+04 6.702196e+04 6.702196e+04 6.702216e+04 6.702216e+04 1.171391e+05 1.177658e+05 1.420010e+05 1.420010e+05 1.420010e+05 1.419014e+05 7.127427e+04 7.127427e+04 7.127427e+04 7.053935e+04 7.053935e+04 7.135210e+04 7.162137e+04 1.090785e+05 1.090785e+05 1.090785e+05 1.084308e+05 1.084308e+05 1.011360e+05 1.013992e+05 1.013992e+05 8.071464e+04 8.071464e+04 8.071464e+04 8.102413e+04 8.102413e+04 8.405855e+04 8.405855e+04 8.405855e+04 8.351102e+04 8.351102e+04 7.409421e+04 7.409421e+04 7.497060e+04 7.497060e+04 1.083123e+05 1.083123e+05 1.076646e+05 7.599368e+04 7.599368e+04 7.581684e+04 7.581684e+04 8.326662e+04 8.326662e+04 8.326662e+04 8.460755e+04 9.621204e+04 9.621204e+04 9.621204e+04 9.485511e+04 9.485511e+04 1.276507e+05 1.300004e+05 1.241798e+05 1.044915e+05 1.044915e+05 1.044915e+05 1.054158e+05 1.054158e+05 1.075634e+05 1.075634e+05 1.080285e+05 1.026563e+05 1.026563e+05 1.025031e+05 1.016117e+05 1.091910e+05 1.091910e+05 1.091910e+05 1.083328e+05 1.083328e+05 1.083328e+05 1.122249e+05 1.122249e+05 1.122249e+05 9.616589e+04 9.691465e+04 1.057404e+05 1.124701e+05 1.124701e+05 1.124701e+05 1.115371e+05 1.157951e+05 1.157951e+05 1.157951e+05 1.158353e+05 1.158353e+05 1.158353e+05 1.152667e+05 8.674538e+04 8.674538e+04 8.674538e+04 9.668071e+04 9.668071e+04 9.668071e+04 1.107686e+05 1.107686e+05 1.107686e+05 1.256442e+05 1.256442e+05 1.257626e+05 8.137520e+04 8.713192e+04 8.713192e+04 1.319171e+05 1.319171e+05 1.319171e+05 1.331480e+05 1.331480e+05 1.052744e+05 1.052744e+05 6.733525e+04 6.821024e+04 6.924540e+04 1.365078e+05 1.365078e+05 1.365078e+05 1.359608e+05 8.971936e+04 8.971936e+04 8.971936e+04 1.071090e+05 1.070269e+05 1.065827e+05 9.618677e+04 9.618677e+04 9.618677e+04 7.990839e+04 7.990839e+04 7.990839e+04 7.973774e+04 7.932804e+04 1.089652e+05 1.089652e+05 1.089652e+05 1.401645e+05 1.401645e+05 1.401645e+05 1.401353e+05 1.201204e+05 1.201204e+05 1.201204e+05 1.198471e+05 1.405037e+05 1.405037e+05 1.405037e+05 1.155448e+05 1.001139e+05 1.001139e+05 1.020836e+05 1.020836e+05 1.020836e+05 1.018632e+05 1.020292e+05 6.589436e+04 6.589436e+04 6.623687e+04 6.503493e+04 6.494075e+04 1.277163e+05 1.277163e+05 8.319407e+04 8.319407e+04 8.319407e+04 8.352448e+04 6.714538e+04 6.714538e+04 6.714538e+04 6.749796e+04 1.205816e+05 1.205926e+05 1.205926e+05 9.400653e+04 9.400653e+04 9.400653e+04 9.383381e+04 6.962278e+04 9.744950e+04 9.744950e+04 9.747970e+04 1.303808e+05 1.303808e+05 1.303808e+05 1.394390e+05 1.394390e+05 1.375901e+05 1.375901e+05 1.375901e+05 1.379895e+05 1.411824e+05 1.411824e+05 1.411824e+05 1.409335e+05 1.409335e+05 1.410953e+05 1.353258e+05 1.353258e+05 1.013621e+05 7.814681e+04 7.814681e+04 7.860760e+04 9.437061e+04 1.437873e+05 1.432398e+05 1.437873e+05 1.437873e+05 1.230474e+05 1.230474e+05 1.230474e+05 1.223887e+05 1.223887e+05 1.311848e+05 1.311848e+05 1.315426e+05 1.315426e+05 1.269085e+05 1.269085e+05 1.269085e+05 1.278594e+05 1.278594e+05 1.051113e+05 1.051113e+05 1.051113e+05 1.056896e+05 1.056896e+05 1.373107e+05 1.373107e+05 1.373107e+05 1.359198e+05 1.359198e+05 1.171045e+05 1.171045e+05 1.171045e+05 1.068812e+05 7.128786e+04 7.128786e+04 7.128786e+04 7.278195e+04 7.278195e+04 7.926998e+04 7.926998e+04 7.926998e+04 8.105215e+04 8.105215e+04 8.904700e+04 8.904700e+04 8.904700e+04 9.071458e+04 9.071458e+04 1.321770e+05 1.321770e+05 1.321770e+05 1.082750e+05 1.082750e+05 1.082750e+05 1.090601e+05 1.090601e+05 9.434285e+04 9.649491e+04 8.961955e+04 8.961955e+04 8.961955e+04 8.864420e+04 1.072483e+05 1.072483e+05 1.069271e+05 1.016901e+05 1.016901e+05 1.016576e+05 1.016576e+05 1.025449e+05 1.032073e+05 1.126900e+05 1.103385e+05 1.126900e+05 1.126900e+05 1.063394e+05 1.063394e+05 1.038214e+05 1.159288e+05 1.167599e+05 1.354590e+05 1.354590e+05 1.354590e+05 1.349016e+05 1.352115e+05 9.351199e+04 9.351199e+04 9.351199e+04 9.287278e+04 7.955891e+04 8.212826e+04 6.580938e+04 6.580938e+04 6.580938e+04 6.610478e+04 1.248698e+05 1.250171e+05 1.249826e+05 1.020143e+05 1.020143e+05 1.018174e+05 6.745777e+04 6.901453e+04 6.901453e+04 6.926427e+04 6.968253e+04 7.906686e+04 7.926563e+04 7.928116e+04 9.214192e+04 9.214192e+04 9.214192e+04 9.198294e+04 7.220155e+04 7.220155e+04 7.220155e+04 7.176658e+04 1.025225e+05 7.250445e+04 7.302331e+04 7.302331e+04 1.170662e+05 1.170662e+05 1.170662e+05 9.149451e+04 1.368179e+05 1.368179e+05 9.536205e+04 9.536205e+04 9.536205e+04 1.211787e+05 6.791766e+04 6.791766e+04 9.339757e+04 9.043483e+04 9.043483e+04 9.043483e+04 9.024661e+04 8.062547e+04 6.560010e+04 6.560010e+04 6.577711e+04 6.899677e+04 1.037287e+05 1.037287e+05 7.489905e+04 7.489905e+04 7.489905e+04 7.450888e+04 1.338685e+05 1.341290e+05 1.341290e+05 1.188037e+05 7.166894e+04 7.166894e+04 7.154795e+04 1.360708e+05 1.360708e+05 1.343173e+05 1.254019e+05 8.566122e+04 8.588587e+04 8.588587e+04 1.430008e+05 1.430008e+05 8.442531e+04 1.385693e+05 1.385693e+05 8.777293e+04 8.777293e+04 8.777293e+04 8.725899e+04 7.825773e+04 7.825773e+04 8.219361e+04 8.219361e+04 6.713074e+04 6.573766e+04 1.136849e+05 1.134458e+05 7.326522e+04 7.384625e+04 7.384625e+04 1.055497e+05 1.058453e+05 1.058453e+05 6.623765e+04 6.623765e+04 6.641304e+04 6.641304e+04 1.308165e+05 1.064494e+05 1.433348e+05 1.433348e+05 1.434410e+05 1.437795e+05 1.437795e+05 1.328516e+05 1.326583e+05 1.217540e+05 1.217540e+05 1.217540e+05 1.401525e+05 1.401525e+05 1.401525e+05 1.400192e+05 8.674717e+04 8.674717e+04 1.230490e+05 6.687339e+04 6.687339e+04 9.088962e+04 8.081160e+04 9.631215e+04 9.631215e+04 9.631215e+04 7.064693e+04 7.064693e+04 1.319406e+05 1.317674e+05 1.317674e+05 1.113015e+05 1.115749e+05 1.093411e+05 1.096058e+05 6.553488e+04 1.419150e+05 1.419150e+05 7.692214e+04 7.692214e+04 7.692214e+04 7.677580e+04 1.405711e+05 8.110812e+04 8.953812e+04 8.953812e+04 8.899879e+04 8.542347e+04 8.542347e+04 6.797825e+04 6.797825e+04 6.753042e+04 1.193916e+05 1.194730e+05 1.194730e+05 9.783758e+04 1.425835e+05 1.425835e+05 1.421050e+05 1.421050e+05 9.969489e+04 9.969489e+04 9.969489e+04 7.564825e+04 7.564825e+04 7.564825e+04 1.007625e+05 1.007625e+05 1.349562e+05 1.421550e+05 1.417399e+05 1.411659e+05 1.331586e+05 1.424751e+05 7.024906e+04 1.121591e+05 1.127766e+05 7.630080e+04 7.630080e+04 1.267773e+05 1.236576e+05 7.766476e+04 7.736404e+04 9.883342e+04 9.883342e+04 1.445832e+05 1.443099e+05 1.437029e+05 1.437029e+05 1.437029e+05 1.439956e+05 1.362430e+05 1.353800e+05 1.371806e+05 1.373689e+05 1.110114e+05 1.110114e+05 1.107654e+05 1.332856e+05 7.207908e+04 7.466199e+04 1.261820e+05 1.238699e+05 1.238699e+05 1.238699e+05 9.662644e+04 8.873033e+04 8.873033e+04 8.873033e+04 1.441470e+05 1.366596e+05 1.417481e+05 1.410847e+05 8.470861e+04 1.197039e+05 1.422224e+05 1.429179e+05 6.734045e+04 6.797534e+04 6.797534e+04 1.162094e+05 1.219417e+05 7.058328e+04 6.865780e+04 1.349707e+05 1.341215e+05 1.341215e+05 7.348941e+04 7.348941e+04 7.379114e+04 7.379114e+04 8.713188e+04 1.272261e+05 1.053334e+05 6.485174e+04 1.385145e+05 1.378818e+05 9.589426e+04 1.045684e+05 1.043664e+05 1.043664e+05 1.368656e+05 1.368656e+05 1.365661e+05 1.365661e+05 9.484600e+04 9.539275e+04 8.307111e+04 8.307111e+04 8.291094e+04 9.134575e+04 9.134575e+04 9.069048e+04 9.069048e+04 8.540640e+04 8.540640e+04 6.591026e+04 1.410438e+05 1.410438e+05 1.335749e+05 1.335749e+05 1.335749e+05 1.295559e+05 7.155981e+04 7.155981e+04 7.726834e+04 7.726834e+04 6.915845e+04 6.933636e+04 1.320476e+05 1.399247e+05 6.474897e+04 6.721917e+04 6.721917e+04 9.903769e+04 9.903769e+04 9.986758e+04 6.825193e+04 6.825193e+04 8.150152e+04 8.150152e+04 1.382604e+05 1.382604e+05 1.123601e+05 1.430352e+05 1.215445e+05 1.215445e+05 1.211496e+05 1.054640e+05 1.059375e+05 6.993784e+04 7.416385e+04 8.607467e+04 1.416690e+05 6.573294e+04 8.998085e+04 8.998085e+04 8.998085e+04 1.029558e+05 1.029558e+05 1.029558e+05 1.092160e+05 9.337000e+04 9.337000e+04 9.337000e+04 9.252310e+04 1.432273e+05 1.427225e+05 1.264694e+05 1.260495e+05 1.260495e+05 1.006474e+05 1.006474e+05 1.006474e+05 1.289330e+05 7.257873e+04 1.408118e+05 1.436690e+05 1.436690e+05 1.432034e+05 1.030905e+05 8.000963e+04 8.000963e+04 8.033933e+04 8.617085e+04 8.617085e+04 1.419941e+05 6.584204e+04 8.666537e+04 8.729379e+04 7.846439e+04 1.108687e+05 1.115141e+05 1.396657e+05 9.663188e+04 9.663188e+04 9.663188e+04 8.193835e+04 8.193835e+04 1.313540e+05 1.310075e+05 1.310075e+05 1.379357e+05 1.373198e+05 7.543505e+04 7.526458e+04 1.385046e+05 1.385046e+05 1.385046e+05 1.382129e+05 7.596420e+04 7.596420e+04 7.625655e+04 6.771350e+04 6.771350e+04 1.136761e+05 1.136761e+05 1.136761e+05 1.134219e+05 8.651843e+04 1.392639e+05 1.392639e+05 1.392639e+05 1.391346e+05 1.403456e+05 7.805961e+04 7.805961e+04 7.804924e+04 7.804924e+04 7.466482e+04 1.322461e+05 1.322461e+05 9.970228e+04 9.902107e+04 1.291948e+05 1.291948e+05 7.680551e+04 7.736262e+04 1.364732e+05 1.432398e+05 1.428961e+05 8.501400e+04 8.508257e+04 1.414416e+05 9.345732e+04 9.345732e+04 9.330860e+04 9.330860e+04 8.472043e+04 9.699929e+04 9.775474e+04 1.248394e+05 8.808235e+04 7.659039e+04 7.744069e+04 1.326064e+05 1.326064e+05 1.426257e+05 1.426257e+05 1.426257e+05 1.422366e+05 6.862683e+04 6.862683e+04 6.810603e+04 1.127592e+05 1.126713e+05 1.230316e+05 6.638711e+04 6.669947e+04 6.669947e+04 6.669947e+04 6.679834e+04 9.138711e+04 1.444514e+05 1.374665e+05 1.363502e+05 1.363502e+05 7.174867e+04 7.174867e+04 7.174867e+04 7.130067e+04 1.416536e+05 1.416536e+05 1.354965e+05 1.354965e+05 1.350470e+05 1.267283e+05 1.199717e+05 1.405804e+05 8.855755e+04 8.798227e+04 1.421190e+05 1.421208e+05 1.062095e+05 1.216438e+05 1.216438e+05 1.216438e+05 1.224073e+05 7.220963e+04 9.432517e+04 9.426217e+04 6.868079e+04 6.924168e+04 1.019018e+05 1.023504e+05 8.121169e+04 8.121169e+04 1.240081e+05 8.424948e+04 8.424948e+04 8.506211e+04 8.266526e+04 8.266526e+04 9.182502e+04 7.366276e+04 7.366276e+04 7.273110e+04 1.354302e+05 1.400139e+05 1.400139e+05 8.998829e+04 9.015906e+04 9.015906e+04 1.155471e+05 7.054302e+04 6.743814e+04 6.768687e+04 1.335540e+05 1.335540e+05 1.043131e+05 8.635967e+04 1.149222e+05 1.147859e+05 1.127317e+05 1.339637e+05 1.339637e+05 1.232353e+05 1.232353e+05 1.232353e+05 1.119702e+05 1.120848e+05 1.287205e+05 1.288969e+05 1.288969e+05 1.046435e+05 1.039622e+05 1.039622e+05 1.175967e+05 1.101747e+05 1.110471e+05 1.377001e+05 1.389999e+05 1.389999e+05 1.389999e+05 1.392585e+05 6.999308e+04 7.806883e+04 9.109133e+04 9.166548e+04 8.110594e+04 8.110594e+04 8.110594e+04 9.722736e+04 9.722736e+04 9.722736e+04 9.751477e+04 9.836520e+04 7.022598e+04 7.485349e+04 7.451015e+04 9.505411e+04 9.505411e+04 7.356415e+04 7.437623e+04 7.437609e+04 7.437609e+04 9.327802e+04 8.411711e+04 8.411711e+04 8.376446e+04 1.259074e+05 1.259074e+05 1.251315e+05 8.870071e+04 8.870071e+04 1.074655e+05 7.767838e+04 7.767838e+04 7.699430e+04 7.699430e+04 6.949911e+04 6.949911e+04 6.949911e+04 1.368918e+05 1.362376e+05 1.362376e+05 6.831728e+04 6.831728e+04 6.831728e+04 6.730217e+04 6.900998e+04 9.616466e+04 1.375697e+05 1.375697e+05 1.366214e+05 1.350461e+05 1.350461e+05 1.350461e+05 1.197634e+05 1.197634e+05 1.192717e+05 1.167648e+05 1.167648e+05 1.174986e+05 7.004961e+04 7.182971e+04 7.182971e+04 1.414705e+05 1.405913e+05 8.727833e+04 8.727833e+04 8.727833e+04 1.414084e+05 7.564330e+04 7.564330e+04 7.598923e+04 7.598923e+04 6.987042e+04 6.987042e+04 7.037256e+04 7.037256e+04 6.839222e+04 6.839222e+04 6.798528e+04 1.138523e+05 1.136916e+05 8.780077e+04 1.321685e+05 1.321685e+05 1.321685e+05 9.721387e+04 1.224039e+05 7.260459e+04 1.191598e+05 1.406653e+05 8.204130e+04 1.245281e+05 1.245281e+05 1.412667e+05 1.405457e+05 1.405457e+05 1.156425e+05 1.158478e+05 1.394688e+05 1.394688e+05 1.382752e+05 7.423949e+04 7.423949e+04 9.912226e+04 1.040331e+05 1.333362e+05 1.095476e+05 1.406384e+05 1.395001e+05 1.395001e+05 8.637518e+04 9.491019e+04 9.246788e+04 1.382864e+05 1.385191e+05 7.081046e+04 7.081046e+04 8.246381e+04 8.246381e+04 1.053515e+05 6.950855e+04 6.946518e+04 6.946518e+04 1.354991e+05 8.528683e+04 8.650934e+04 9.244408e+04 9.244408e+04 9.244408e+04 9.144284e+04 9.144284e+04 1.218282e+05 1.333815e+05 1.375028e+05 1.280242e+05 1.280242e+05 1.118720e+05 1.118720e+05 1.120798e+05 1.108220e+05 1.108220e+05 1.395786e+05 1.395786e+05 1.395786e+05 1.383220e+05 1.383220e+05 1.173505e+05 1.173505e+05 1.181989e+05 1.222309e+05 1.206450e+05 1.206450e+05 1.206450e+05 7.867308e+04 1.236844e+05 1.229880e+05 1.229880e+05 7.916631e+04 7.959227e+04 6.821024e+04 7.072578e+04 1.364389e+05 1.160376e+05 1.150348e+05 1.405913e+05 1.292050e+05 1.292050e+05 1.280334e+05 1.280334e+05 1.303350e+05 1.305618e+05 1.368415e+05 7.240947e+04 7.759151e+04 7.759151e+04 7.769106e+04 6.974095e+04 1.320218e+05 6.857342e+04 9.819491e+04 8.038899e+04 1.379383e+05 1.349334e+05 1.349334e+05 1.346688e+05 1.346688e+05 9.102052e+04 1.029482e+05 1.029482e+05 1.029482e+05 8.764069e+04 1.314596e+05 1.072233e+05 7.436051e+04 7.428875e+04 8.483635e+04 6.995689e+04 7.675041e+04 7.505279e+04 7.280618e+04 7.280618e+04 7.280618e+04 1.239908e+05 8.893284e+04 7.053638e+04 1.285611e+05 1.285611e+05 1.277387e+05 1.116336e+05 9.834848e+04 9.834848e+04 1.342807e+05 1.188552e+05 1.194615e+05 7.154076e+04 1.108973e+05 1.108973e+05 1.123395e+05 6.986197e+04 7.278922e+04 7.278922e+04 7.207482e+04 1.034777e+05 1.034777e+05 1.034777e+05 1.137908e+05 9.360359e+04 1.083444e+05 9.175046e+04 9.070291e+04 9.070291e+04 8.786464e+04 8.118480e+04 1.240700e+05 1.240700e+05 1.304750e+05 8.568236e+04 8.568236e+04 8.568236e+04 8.521312e+04 1.375433e+05 1.158713e+05 1.356234e+05 1.340446e+05 1.012210e+05 1.219232e+05 1.224208e+05 1.352800e+05 1.147438e+05 1.146857e+05 7.126794e+04 1.142575e+05 1.291512e+05 1.291512e+05 1.291512e+05 1.393726e+05 1.387731e+05 1.283072e+05 1.339462e+05 1.393726e+05 7.442907e+04 7.286748e+04 8.264939e+04 1.190882e+05 1.173231e+05 1.097087e+05 7.629047e+04 7.629047e+04 7.629047e+04 8.685885e+04 1.337067e+05 1.337067e+05 1.368814e+05 1.368814e+05 1.126496e+05 7.390847e+04 1.329434e+05 9.965901e+04 9.965901e+04 9.965901e+04 9.492474e+04 1.317524e+05 1.317524e+05 9.900432e+04 1.085115e+05 1.197113e+05 7.664243e+04 1.292095e+05 1.292095e+05 1.292095e+05 7.521123e+04 7.521123e+04 7.521123e+04 1.390575e+05 1.080746e+05 1.347556e+05 1.347556e+05 7.356872e+04 7.356872e+04 7.356872e+04 7.436812e+04 9.352862e+04 9.352862e+04 9.352862e+04 1.251704e+05 1.251704e+05 1.251704e+05 1.280055e+05 1.015466e+05 1.012975e+05 1.033084e+05 1.033084e+05 1.033084e+05 9.625409e+04 9.666368e+04 9.666368e+04 1.241215e+05 1.220510e+05 1.375743e+05 1.010008e+05 1.004427e+05 7.840955e+04 8.108216e+04 1.147654e+05 8.526098e+04 7.748639e+04 7.748639e+04 7.654566e+04 1.309876e+05 1.124773e+05 8.744559e+04 8.681738e+04 9.843095e+04 1.145931e+05 9.235579e+04 9.235579e+04 1.224604e+05 1.244772e+05 1.236719e+05 8.406144e+04 1.079040e+05 1.321945e+05 7.882446e+04 7.882446e+04 7.560529e+04 7.560529e+04 1.262966e+05 1.262966e+05 1.262966e+05 1.245163e+05 1.245163e+05 1.142625e+05 1.280000e+05 1.275687e+05 1.275687e+05 8.517585e+04 1.106560e+05 1.121291e+05 1.175356e+05 1.175356e+05 1.194160e+05 1.249750e+05 7.926418e+04 7.926418e+04 1.230519e+05 1.222932e+05 7.840955e+04 7.840955e+04 8.763348e+04 9.106341e+04 9.106341e+04 9.106341e+04 1.055141e+05 8.352791e+04 8.401637e+04 9.939353e+04 9.939353e+04 9.939353e+04 1.025861e+05 1.037922e+05 1.124881e+05 1.017587e+05 8.680459e+04 1.175753e+05 1.175753e+05 1.175753e+05 1.163788e+05 9.019022e+04 1.239485e+05 1.239485e+05 1.239485e+05 1.202229e+05 8.068247e+04 1.216790e+05 1.216790e+05 1.060198e+05 8.062228e+04 8.062228e+04 8.062228e+04 8.016854e+04 8.016854e+04 1.297883e+05 1.276587e+05 1.276587e+05 8.188358e+04 8.939883e+04 8.939883e+04 1.157590e+05 8.265994e+04 8.265994e+04 8.265994e+04 8.469279e+04 8.469279e+04 8.469279e+04 1.030586e+05 1.030586e+05 1.040586e+05 9.522516e+04 8.207128e+04 8.207128e+04 1.025007e+05 1.090739e+05 1.090739e+05 1.074563e+05 1.074563e+05 1.209957e+05 9.271837e+04 9.315911e+04 9.315911e+04 9.198629e+04 9.198629e+04 9.908640e+04 9.908640e+04 1.011557e+05 1.136386e+05 1.136386e+05 1.121347e+05 1.121347e+05 9.596911e+04 1.142297e+05 1.247960e+05 1.241524e+05 1.241524e+05 1.126740e+05 1.066184e+05 9.835355e+04 1.223855e+05 1.223855e+05 1.141194e+05 1.241798e+05 1.241798e+05 8.299834e+04 8.299834e+04 1.162544e+05 1.203266e+05 1.203266e+05 1.203266e+05 1.184299e+05 1.184299e+05 1.216032e+05 1.093756e+05 1.093756e+05 1.188006e+05 1.188006e+05 1.172864e+05 9.837489e+04 1.056959e+05 8.875677e+04 8.784572e+04 1.213140e+05 1.213140e+05 9.013374e+04 9.013374e+04 1.029258e+05 1.029258e+05 8.445862e+04 1.074027e+05 1.074027e+05 1.058082e+05 9.571680e+04 9.571680e+04 1.155713e+05 1.155713e+05 1.139497e+05 1.098481e+05 1.098481e+05 9.920241e+04 9.920241e+04 1.046454e+05 1.046454e+05 1.017261e+05 1.019843e+05 1.019843e+05 9.239082e+04 9.217365e+04 9.807248e+04 1.090986e+05 1.092577e+05 1.194084e+05 1.189399e+05 1.155301e+05 1.155301e+05 1.192197e+05 9.498271e+04 9.498271e+04 9.295800e+04 1.115323e+05 1.189390e+05 1.206862e+05 1.206862e+05 1.015780e+05 1.015780e+05 1.160615e+05 1.186047e+05 9.846924e+04 9.846924e+04 1.145657e+05 1.145657e+05 9.097217e+04 9.427452e+04 9.427452e+04 9.427452e+04 9.263855e+04 9.263855e+04 1.141764e+05 1.126797e+05 1.100987e+05 1.100987e+05 1.120939e+05 1.120939e+05 1.140380e+05 9.735589e+04 1.175636e+05 1.150557e+05 1.067257e+05 1.043590e+05 1.091879e+05 1.064887e+05 1.116934e+05 1.001814e+05 1.053968e+05 1.081694e+05 1.067942e+05 1.073652e+05 1.110259e+05 1.103385e+05 1.023188e+05 1.023188e+05 1.066822e+05 1.059936e+05 1.090078e+05 1.011894e+05 1.018557e+05 1.073875e+05 1.073875e+05 1.072304e+05 1.072304e+05 1.035514e+05 1.035514e+05 1.062624e+05 1.051133e+05 1.051133e+05 1.051133e+05 1.050940e+05 1.050940e+05 9.779404e+04 9.779404e+04 9.779404e+04 9.320771e+04 9.320771e+04 8.641196e+04 8.737370e+04 1.003531e+05 8.641196e+04 8.641196e+04 8.542663e+04 9.098945e+04 9.386764e+04 9.530379e+04 9.589585e+04 9.603412e+04 9.828193e+04 9.847516e+04 9.990929e+04 9.990929e+04 1.032675e+05 8.464328e+04 1.003531e+05 1.187137e+05 1.128354e+05 1.062072e+05 1.186649e+05 1.186649e+05 1.158706e+05 1.155829e+05 1.158706e+05 1.035324e+05 1.142633e+05 1.046874e+05 1.009884e+05 1.012735e+05 1.012735e+05 1.053240e+05 1.445832e+05 1.445832e+05 1.444514e+05 1.442512e+05 1.441562e+05 1.440404e+05 1.438541e+05 1.436353e+05 1.434563e+05 1.432675e+05 1.430658e+05 1.428561e+05 1.426352e+05 1.424057e+05 1.422049e+05 1.418676e+05 1.416463e+05 1.414367e+05 1.411428e+05 1.408533e+05 1.405961e+05 1.402865e+05 1.399752e+05 1.396472e+05 1.393062e+05 1.389170e+05 1.385827e+05 1.382661e+05 1.379099e+05 1.374849e+05 1.371532e+05 1.367405e+05 1.363600e+05 1.358948e+05 1.354138e+05 1.350889e+05 1.346706e+05 1.342322e+05 1.337137e+05 1.333053e+05 1.328516e+05 1.323739e+05 1.319406e+05 1.314101e+05 1.309001e+05 1.304442e+05 1.299910e+05 1.295062e+05 1.288638e+05 1.282629e+05 1.277723e+05 1.272406e+05 1.266987e+05 1.262049e+05 1.255948e+05 1.251034e+05 1.245572e+05 1.240255e+05 1.234600e+05 1.228896e+05 1.223352e+05 1.217692e+05 1.211363e+05 1.205816e+05 1.200110e+05 1.193916e+05 1.187035e+05 1.181437e+05 1.175672e+05 1.169874e+05 1.163260e+05 1.157274e+05 1.151213e+05 1.145200e+05 1.138477e+05 1.132559e+05 1.125885e+05 1.119527e+05 1.113015e+05 1.107341e+05 1.100045e+05 1.093411e+05 1.086936e+05 1.080229e+05 1.074226e+05 1.068013e+05 1.061780e+05 1.055497e+05 1.048433e+05 1.041810e+05 1.035437e+05 1.029020e+05 1.023561e+05 1.016662e+05 1.010163e+05 1.004302e+05 9.975572e+04 9.912715e+04 9.851989e+04 9.776324e+04 9.716308e+04 9.654947e+04 9.599095e+04 9.527438e+04 9.466922e+04 9.407011e+04 9.346646e+04 9.282061e+04 9.221784e+04 9.164124e+04 9.106609e+04 9.047760e+04 8.989743e+04 8.921567e+04 8.862164e+04 8.795868e+04 8.737153e+04 8.683396e+04 8.624074e+04 8.566122e+04 8.512840e+04 8.457762e+04 8.400512e+04 8.345005e+04 8.291722e+04 8.233537e+04 8.185801e+04 8.128949e+04 8.073868e+04 8.025600e+04 7.978084e+04 7.914567e+04 7.869548e+04 7.822648e+04 7.781453e+04 7.727346e+04 7.679634e+04 7.640120e+04 7.586400e+04 7.547512e+04 7.506908e+04 7.453563e+04 7.414366e+04 7.371307e+04 7.326522e+04 7.289157e+04 7.250445e+04 7.208851e+04 7.168279e+04 7.138018e+04 7.104295e+04 7.061435e+04 7.025554e+04 6.993098e+04 6.956702e+04 6.926499e+04 6.899677e+04 6.857453e+04 6.830141e+04 6.800691e+04 6.774940e+04 6.743530e+04 6.719464e+04 6.692018e+04 6.666853e+04 6.646320e+04 6.626159e+04 6.607650e+04 6.587440e+04 6.571595e+04 6.544937e+04 6.527505e+04 6.510336e+04 6.495925e+04 6.484367e+04 6.466556e+04 6.455046e+04 6.442492e+04 6.428914e+04 6.420076e+04 6.414140e+04 1.025430e+05 1.025430e+05 1.025430e+05 1.041819e+05 1.041819e+05 1.041819e+05 1.045737e+05 1.042483e+05 1.063394e+05 1.052024e+05 1.086055e+05 1.086055e+05 1.086055e+05 1.085516e+05 9.653477e+04 9.653477e+04 9.653477e+04 9.646970e+04 9.712525e+04 1.315825e+05 1.315825e+05 1.315825e+05 1.314903e+05 1.311516e+05 1.311516e+05 1.311516e+05 1.303424e+05 9.939315e+04 9.939315e+04 9.939315e+04 1.000378e+05 1.005805e+05 1.005566e+05 7.876237e+04 7.876237e+04 7.876237e+04 7.779393e+04 7.779393e+04 1.302647e+05 1.302647e+05 1.302647e+05 1.297017e+05 7.295367e+04 7.295367e+04 7.295367e+04 7.206501e+04 7.206501e+04 1.425883e+05 1.425883e+05 1.425883e+05 1.136966e+05 1.136966e+05 1.136966e+05 1.140831e+05 1.076138e+05 1.076138e+05 1.076138e+05 1.278962e+05 1.278962e+05 1.278962e+05 1.278859e+05 8.021931e+04 8.021931e+04 8.027934e+04 8.027934e+04 1.159505e+05 1.159505e+05 1.164305e+05 1.288708e+05 1.288708e+05 1.288708e+05 1.294849e+05 1.294849e+05 6.863843e+04 6.863843e+04 6.863843e+04 6.946708e+04 6.946708e+04 9.906007e+04 9.906007e+04 9.906007e+04 9.811894e+04 9.811894e+04 1.325547e+05 1.325547e+05 1.167954e+05 1.167954e+05 1.167954e+05 1.169407e+05 1.077362e+05 1.077362e+05 1.077362e+05 1.074710e+05 1.075285e+05 1.181440e+05 1.181440e+05 1.181440e+05 1.146589e+05 1.146589e+05 1.149015e+05 1.350889e+05 1.353230e+05 1.353230e+05 6.495925e+04 6.546354e+04 6.546354e+04 1.070925e+05 8.291722e+04 8.333698e+04 1.075937e+05 1.039594e+05 1.039594e+05 1.039594e+05 1.045744e+05 9.868025e+04 1.039227e+05 1.039227e+05 1.039227e+05 1.049857e+05 1.049857e+05 9.550418e+04 9.550418e+04 9.550418e+04 9.639469e+04 8.827661e+04 8.827661e+04 8.827661e+04 8.810153e+04 1.304636e+05 1.302418e+05 1.292764e+05 1.325276e+05 1.325276e+05 1.054603e+05 1.054603e+05 1.054603e+05 1.060518e+05 1.205412e+05 1.205412e+05 1.205412e+05 1.212709e+05 1.212709e+05 1.205883e+05 8.407868e+04 8.407868e+04 8.407868e+04 8.367114e+04 8.822666e+04 8.822666e+04 8.822666e+04 8.901641e+04 8.947569e+04 1.155581e+05 1.155581e+05 1.155581e+05 1.156239e+05 7.126794e+04 6.924540e+04 9.471959e+04 9.471959e+04 9.471959e+04 9.545112e+04 7.959554e+04 7.959554e+04 7.959554e+04 7.986443e+04 1.253815e+05 1.253815e+05 1.253815e+05 1.263028e+05 1.263028e+05 7.540642e+04 7.540642e+04 7.540642e+04 7.580069e+04 1.250604e+05 1.250604e+05 1.250604e+05 1.247983e+05 1.303755e+05 1.303755e+05 1.303755e+05 1.303517e+05 8.411967e+04 8.411967e+04 8.405784e+04 1.082303e+05 1.082303e+05 1.099148e+05 1.099148e+05 1.099148e+05 1.047080e+05 1.047080e+05 1.047080e+05 1.044232e+05 6.525476e+04 6.525476e+04 6.525476e+04 6.516544e+04 6.516544e+04 1.391054e+05 1.391054e+05 1.391054e+05 1.387231e+05 1.387231e+05 1.086635e+05 1.241568e+05 1.241568e+05 1.245607e+05 6.471107e+04 6.471107e+04 6.471107e+04 6.464708e+04 6.990211e+04 6.990211e+04 7.031152e+04 7.031152e+04 1.333586e+05 1.333586e+05 1.336615e+05 1.288406e+05 1.288406e+05 6.832691e+04 6.832691e+04 6.871720e+04 6.871720e+04 1.266855e+05 1.266855e+05 1.266855e+05 1.264210e+05 1.072467e+05 1.068725e+05 1.155875e+05 1.155875e+05 1.155875e+05 1.151978e+05 1.195547e+05 1.195547e+05 1.195547e+05 1.188437e+05 1.188437e+05 6.702196e+04 6.702196e+04 6.702196e+04 6.702216e+04 6.702216e+04 1.171391e+05 1.177658e+05 1.420010e+05 1.420010e+05 1.420010e+05 1.419014e+05 7.127427e+04 7.127427e+04 7.127427e+04 7.053935e+04 7.053935e+04 7.135210e+04 7.162137e+04 1.090785e+05 1.090785e+05 1.090785e+05 1.084308e+05 1.084308e+05 1.011360e+05 1.013992e+05 1.013992e+05 8.071464e+04 8.071464e+04 8.071464e+04 8.102413e+04 8.102413e+04 8.405855e+04 8.405855e+04 8.405855e+04 8.351102e+04 8.351102e+04 7.409421e+04 7.409421e+04 