<?xml version="1.0"?>
 <VTKFile type="UnstructuredGrid" version="1.0" byte_order="LittleEndian" header_type="UInt64">
  <UnstructuredGrid>
    <FieldData>
     <DataArray type="Float64" Name="TimeValue" NumberOfTuples="1" format="ascii">
0.00011
     </DataArray>
    </FieldData>
   <Piece NumberOfPoints="3548" NumberOfCells="3379">
    <PointData>
     <DataArray type="Float64" Name="pointP" format="ascii">
8.920395e+04 8.861142e+04 8.803188e+04 8.755155e+04 8.680304e+04 8.627462e+04 8.568341e+04 8.510486e+04 8.444709e+04 8.394693e+04 8.342156e+04 8.284568e+04 8.238086e+04 8.179996e+04 8.131821e+04 8.084928e+04 8.024701e+04 7.975585e+04 7.927973e+04 7.877229e+04 7.823537e+04 7.776326e+04 7.729286e+04 7.678279e+04 7.632991e+04 7.588728e+04 7.542225e+04 7.499138e+04 7.451415e+04 7.412967e+04 7.371175e+04 7.330826e+04 7.289095e+04 7.247436e+04 7.211020e+04 7.169976e+04 7.132486e+04 7.094372e+04 7.061897e+04 7.022599e+04 6.991911e+04 6.958442e+04 6.917719e+04 6.893160e+04 6.858858e+04 6.825759e+04 6.798209e+04 6.765663e+04 6.742119e+04 6.717519e+04 6.691683e+04 6.667513e+04 6.642479e+04 6.619916e+04 6.600936e+04 6.583233e+04 6.564041e+04 6.543149e+04 6.524739e+04 6.509292e+04 6.494377e+04 6.480489e+04 6.463748e+04 6.456349e+04 6.445230e+04 6.431897e+04 6.422232e+04 6.411422e+04 6.402243e+04 6.395669e+04 6.391116e+04 6.384803e+04 6.377278e+04 6.376961e+04 6.371558e+04 6.373915e+04 6.373786e+04 6.447467e+04 6.519035e+04 6.626083e+04 6.703167e+04 6.703167e+04 6.803488e+04 6.898623e+04 6.954837e+04 7.008957e+04 7.008957e+04 7.092161e+04 7.162405e+04 7.213589e+04 7.263609e+04 7.283676e+04 7.385501e+04 7.407738e+04 7.447085e+04 7.507336e+04 7.550771e+04 7.586123e+04 7.645497e+04 7.682721e+04 7.724195e+04 7.786490e+04 7.786490e+04 7.836548e+04 7.906979e+04 7.924864e+04 7.960509e+04 7.985704e+04 8.021381e+04 8.079479e+04 8.133882e+04 8.150908e+04 8.181243e+04 8.224363e+04 8.244320e+04 8.306639e+04 8.324120e+04 8.354849e+04 8.386574e+04 8.402797e+04 8.463415e+04 8.473559e+04 8.513503e+04 8.540338e+04 8.563655e+04 8.610013e+04 8.620360e+04 8.676972e+04 8.676972e+04 8.703693e+04 8.741027e+04 8.790839e+04 8.790839e+04 8.831751e+04 8.870179e+04 8.870179e+04 8.903546e+04 8.936807e+04 8.958871e+04 8.998712e+04 8.998712e+04 9.044122e+04 9.044122e+04 9.071056e+04 9.094598e+04 9.126952e+04 9.146970e+04 9.165350e+04 9.206908e+04 9.206908e+04 9.238705e+04 9.260120e+04 9.280708e+04 9.312576e+04 9.312576e+04 9.085704e+04 9.085704e+04 9.085704e+04 9.119596e+04 9.741064e+04 9.741064e+04 9.741064e+04 9.384770e+04 9.384770e+04 9.384770e+04 9.485665e+04 8.741988e+04 8.741988e+04 8.741988e+04 8.659489e+04 8.255871e+04 8.255871e+04 8.255871e+04 8.163670e+04 7.086003e+04 7.086003e+04 7.086003e+04 7.108846e+04 7.172799e+04 7.371148e+04 7.371148e+04 7.371148e+04 7.416018e+04 9.097897e+04 9.097897e+04 9.097897e+04 8.404687e+04 8.404687e+04 8.404687e+04 8.445182e+04 8.426359e+04 6.849941e+04 6.849941e+04 6.849941e+04 6.795057e+04 8.825235e+04 8.825235e+04 8.825235e+04 8.903433e+04 8.903433e+04 7.560288e+04 7.560288e+04 7.560288e+04 7.545308e+04 7.546300e+04 6.856701e+04 6.856701e+04 6.856701e+04 6.843127e+04 6.850404e+04 7.719626e+04 7.719626e+04 7.719626e+04 7.714973e+04 6.573023e+04 6.573023e+04 6.573023e+04 8.839226e+04 8.839226e+04 7.737625e+04 7.737625e+04 7.209980e+04 7.209980e+04 7.209980e+04 7.169272e+04 6.699249e+04 6.699249e+04 6.699249e+04 6.652331e+04 6.469871e+04 6.469871e+04 6.525385e+04 6.525385e+04 7.148341e+04 7.148341e+04 7.148341e+04 7.130061e+04 7.130061e+04 6.649995e+04 6.649995e+04 6.649995e+04 6.704371e+04 6.704371e+04 8.913889e+04 7.126884e+04 7.126884e+04 7.126884e+04 7.176661e+04 8.522249e+04 8.522249e+04 8.522249e+04 8.497241e+04 8.497241e+04 8.059595e+04 8.059595e+04 8.059595e+04 8.168837e+04 8.168837e+04 7.706156e+04 7.706156e+04 7.706156e+04 7.695063e+04 7.695063e+04 7.482200e+04 7.482200e+04 7.482200e+04 7.592990e+04 7.592990e+04 8.941416e+04 8.941416e+04 8.941416e+04 8.956813e+04 8.891314e+04 8.891314e+04 8.891314e+04 8.816411e+04 7.991070e+04 7.991070e+04 7.991070e+04 7.900127e+04 7.900127e+04 9.427109e+04 9.427109e+04 9.427109e+04 8.817654e+04 8.817654e+04 8.817654e+04 8.856259e+04 8.856259e+04 9.285607e+04 9.285607e+04 9.285607e+04 9.439039e+04 9.439039e+04 8.631982e+04 8.631982e+04 8.631982e+04 8.742454e+04 7.988178e+04 7.988178e+04 7.310012e+04 7.310012e+04 7.310012e+04 8.550120e+04 8.550120e+04 8.676504e+04 8.676504e+04 8.742818e+04 8.742818e+04 8.742818e+04 8.740773e+04 6.708004e+04 6.708004e+04 6.708004e+04 6.751947e+04 8.753823e+04 8.753823e+04 6.756262e+04 6.756262e+04 6.756262e+04 7.997665e+04 7.997665e+04 7.997665e+04 7.974212e+04 7.974212e+04 6.524109e+04 6.524109e+04 6.524109e+04 6.584513e+04 6.584513e+04 6.433251e+04 6.433251e+04 6.416755e+04 6.436950e+04 6.436950e+04 6.436950e+04 8.009097e+04 8.009097e+04 7.451415e+04 6.724870e+04 6.724870e+04 6.724870e+04 6.529021e+04 7.717294e+04 7.669386e+04 6.933779e+04 6.933779e+04 6.933779e+04 6.596690e+04 6.596690e+04 6.596690e+04 6.446997e+04 6.446997e+04 6.446997e+04 6.823203e+04 6.823203e+04 6.823203e+04 6.909115e+04 6.909115e+04 7.214266e+04 7.214266e+04 7.214266e+04 7.107808e+04 7.107808e+04 7.300461e+04 7.300461e+04 7.360711e+04 7.360711e+04 7.232221e+04 7.232221e+04 7.278841e+04 8.920260e+04 8.920260e+04 8.901664e+04 8.901664e+04 8.898796e+04 8.898796e+04 9.943550e+04 9.879597e+04 9.943550e+04 9.943550e+04 8.336683e+04 8.172387e+04 8.172387e+04 7.308555e+04 7.308555e+04 7.308555e+04 7.163688e+04 7.163688e+04 7.163688e+04 8.694828e+04 7.903115e+04 7.903115e+04 7.842607e+04 7.842607e+04 7.836751e+04 8.061742e+04 7.626222e+04 6.480489e+04 6.548365e+04 6.548365e+04 7.066530e+04 7.066530e+04 7.025641e+04 7.371175e+04 7.434142e+04 7.434142e+04 6.472334e+04 6.472334e+04 6.472334e+04 6.438390e+04 6.454829e+04 8.680304e+04 8.708335e+04 8.708335e+04 7.211020e+04 7.264544e+04 7.264544e+04 8.913889e+04 7.935493e+04 7.935493e+04 7.286384e+04 8.462960e+04 8.462960e+04 8.462960e+04 6.635101e+04 7.155868e+04 7.155868e+04 7.108023e+04 8.139421e+04 8.139421e+04 8.139421e+04 8.208730e+04 8.208730e+04 8.182689e+04 8.374251e+04 8.374251e+04 7.333191e+04 8.510486e+04 8.551315e+04 6.463692e+04 6.463692e+04 6.495739e+04 6.523674e+04 6.518024e+04 6.518024e+04 6.546564e+04 6.564041e+04 6.622276e+04 6.622276e+04 6.728183e+04 8.627462e+04 8.669284e+04 6.518385e+04 7.604994e+04 6.429919e+04 8.361315e+04 8.361315e+04 6.819138e+04 6.810294e+04 6.468846e+04 6.962846e+04 6.962846e+04 6.962846e+04 7.017050e+04 7.017050e+04 8.765347e+04 8.765347e+04 7.405290e+04 8.309036e+04 8.277801e+04 6.522635e+04 6.671263e+04 6.671263e+04 8.823831e+04 7.911427e+04 7.259677e+04 6.933723e+04 8.723607e+04 7.303972e+04 7.354670e+04 7.243038e+04 7.278376e+04 7.278376e+04 7.752656e+04 6.444571e+04 6.993278e+04 7.049602e+04 6.555790e+04 8.657769e+04 8.657769e+04 8.620733e+04 7.295554e+04 7.380999e+04 7.380999e+04 6.656879e+04 8.410508e+04 8.410508e+04 8.410508e+04 8.379352e+04 6.542625e+04 6.526456e+04 8.151525e+04 8.151525e+04 8.151525e+04 8.060372e+04 6.759619e+04 6.960127e+04 6.794620e+04 6.794620e+04 7.624598e+04 7.620843e+04 7.459429e+04 7.498131e+04 6.822058e+04 8.462939e+04 6.858841e+04 6.892459e+04 6.892459e+04 6.934095e+04 6.934095e+04 6.739045e+04 6.739045e+04 7.788388e+04 7.788388e+04 6.775363e+04 7.195213e+04 8.595019e+04 8.595019e+04 8.100990e+04 8.100990e+04 8.239354e+04 6.915443e+04 8.303877e+04 8.234218e+04 7.220468e+04 7.255586e+04 6.525408e+04 6.525408e+04 6.575837e+04 6.642893e+04 8.744953e+04 6.627545e+04 6.627545e+04 7.292850e+04 7.345763e+04 6.568602e+04 6.589423e+04 6.603254e+04 7.418718e+04 6.641250e+04 8.393564e+04 8.393564e+04 7.448444e+04 8.835021e+04 6.737812e+04 7.080468e+04 8.635602e+04 7.799448e+04 7.799448e+04 7.799448e+04 7.838809e+04 7.838809e+04 7.595271e+04 7.566102e+04 7.934786e+04 7.853668e+04 7.013695e+04 6.607106e+04 8.197042e+04 7.226075e+04 6.584044e+04 7.659761e+04 6.936641e+04 6.737640e+04 6.737640e+04 6.737640e+04 7.485512e+04 7.498832e+04 8.169686e+04 8.221811e+04 6.686324e+04 6.686324e+04 6.985078e+04 6.961582e+04 6.961582e+04 6.921212e+04 6.921212e+04 8.070367e+04 6.852265e+04 6.870171e+04 6.870171e+04 7.807818e+04 7.807818e+04 8.237296e+04 7.924026e+04 7.924026e+04 7.900446e+04 6.839745e+04 6.839745e+04 6.845747e+04 6.845747e+04 6.845747e+04 6.787563e+04 8.140008e+04 8.840027e+04 7.311180e+04 7.311180e+04 7.335372e+04 8.928294e+04 7.980967e+04 8.098054e+04 7.105278e+04 6.662268e+04 8.348016e+04 8.393171e+04 7.493775e+04 7.493775e+04 8.325050e+04 8.325050e+04 7.582880e+04 6.938662e+04 7.063092e+04 7.063092e+04 7.939100e+04 8.045931e+04 8.928294e+04 7.924413e+04 7.783233e+04 7.783233e+04 8.436776e+04 7.036708e+04 7.036708e+04 6.850509e+04 6.999953e+04 6.999953e+04 8.886995e+04 8.886995e+04 8.816643e+04 7.868196e+04 7.868196e+04 7.868196e+04 7.783006e+04 6.904731e+04 8.697816e+04 9.022802e+04 8.008195e+04 8.008195e+04 7.483333e+04 7.483333e+04 7.393239e+04 8.949286e+04 7.297240e+04 7.199929e+04 7.199929e+04 7.914360e+04 7.012398e+04 7.012398e+04 7.121326e+04 7.295617e+04 8.093952e+04 7.480437e+04 7.480437e+04 7.480437e+04 8.688750e+04 8.568648e+04 7.624606e+04 7.750833e+04 7.750833e+04 7.708383e+04 7.708383e+04 7.708383e+04 7.582676e+04 7.170526e+04 8.020242e+04 8.020242e+04 8.136850e+04 7.264517e+04 7.617783e+04 7.617783e+04 7.617783e+04 7.601281e+04 7.848675e+04 7.889131e+04 9.215778e+04 9.046464e+04 8.960170e+04 8.530853e+04 8.020680e+04 8.169480e+04 8.297234e+04 8.297234e+04 7.523231e+04 7.523231e+04 7.364777e+04 7.398559e+04 8.356275e+04 8.356275e+04 8.356275e+04 7.536276e+04 9.112032e+04 7.724151e+04 9.195878e+04 9.221738e+04 8.196906e+04 8.284280e+04 7.587795e+04 7.426784e+04 7.595348e+04 7.732687e+04 7.732687e+04 8.614730e+04 8.614730e+04 8.614730e+04 9.433615e+04 8.178118e+04 8.269360e+04 8.294108e+04 8.646335e+04 8.371875e+04 8.463558e+04 9.209433e+04 8.938406e+04 8.049618e+04 8.049618e+04 8.049618e+04 7.845585e+04 7.788449e+04 8.665926e+04 8.665926e+04 8.255953e+04 8.255953e+04 8.903200e+04 8.999730e+04 8.461564e+04 9.086327e+04 8.510874e+04 9.553908e+04 8.966883e+04 8.966883e+04 9.247778e+04 9.487743e+04 9.487743e+04 9.124967e+04 9.124967e+04 9.294607e+04 9.294607e+04 8.934114e+04 9.437514e+04 9.437514e+04 9.088703e+04 9.619140e+04 9.793351e+04 9.873476e+04 9.258460e+04 9.258460e+04 9.258460e+04 7.368947e+04 7.368947e+04 7.368947e+04 7.361000e+04 7.361000e+04 9.129528e+04 9.129528e+04 9.129528e+04 9.182559e+04 7.303785e+04 7.303785e+04 7.347377e+04 7.347377e+04 6.725614e+04 6.725614e+04 6.725614e+04 9.060383e+04 9.060383e+04 9.060383e+04 9.051600e+04 8.331931e+04 8.331931e+04 8.331931e+04 8.402360e+04 8.542580e+04 8.542580e+04 8.101747e+04 8.101747e+04 8.101747e+04 7.913620e+04 7.913620e+04 7.913620e+04 7.590816e+04 7.590816e+04 7.590816e+04 7.520011e+04 7.520011e+04 7.520011e+04 7.486096e+04 8.815467e+04 8.815467e+04 8.815467e+04 8.579859e+04 8.579859e+04 8.579859e+04 8.916729e+04 8.916729e+04 8.916729e+04 8.736906e+04 8.736906e+04 8.736906e+04 8.667858e+04 8.667858e+04 9.286920e+04 9.286920e+04 9.155467e+04 9.018608e+04 9.499278e+04 9.499278e+04 9.499278e+04 8.772842e+04 8.772842e+04 7.988233e+04 7.988233e+04 7.988233e+04 8.278973e+04 8.278973e+04 8.278973e+04 7.939229e+04 7.939229e+04 7.939229e+04 7.890711e+04 7.793242e+04 7.793242e+04 7.793242e+04 7.811841e+04 7.741174e+04 7.741174e+04 7.741174e+04 7.993171e+04 7.993171e+04 7.993171e+04 7.985327e+04 7.956694e+04 8.259184e+04 8.259184e+04 8.259184e+04 7.747025e+04 7.747025e+04 7.891042e+04 7.891042e+04 7.929758e+04 8.038740e+04 8.038740e+04 8.418653e+04 8.418653e+04 8.418653e+04 8.539754e+04 8.539754e+04 8.517631e+04 8.517631e+04 8.517631e+04 7.919139e+04 8.739920e+04 8.739920e+04 8.739920e+04 9.115412e+04 9.064706e+04 9.793109e+04 9.793109e+04 9.370040e+04 9.370040e+04 8.494248e+04 8.494248e+04 8.494248e+04 8.540232e+04 8.584433e+04 7.415688e+04 7.415688e+04 7.965996e+04 7.297244e+04 7.726816e+04 7.726816e+04 7.726816e+04 8.120741e+04 7.551208e+04 7.551208e+04 7.977403e+04 8.227368e+04 8.227368e+04 8.233602e+04 8.711909e+04 8.711909e+04 8.316888e+04 8.316888e+04 8.316888e+04 7.072208e+04 7.072208e+04 7.072208e+04 7.472097e+04 7.431492e+04 8.701268e+04 7.231106e+04 7.231106e+04 7.231106e+04 7.154719e+04 7.692280e+04 7.692280e+04 8.423739e+04 8.423739e+04 8.078961e+04 7.560839e+04 7.560839e+04 7.620817e+04 7.620817e+04 8.125555e+04 8.125555e+04 8.125555e+04 8.938950e+04 8.938950e+04 9.123157e+04 9.123157e+04 7.842500e+04 8.214941e+04 8.214941e+04 8.214941e+04 8.057463e+04 8.057463e+04 8.558618e+04 8.558618e+04 7.370770e+04 7.370770e+04 9.039412e+04 9.039412e+04 8.172656e+04 8.382351e+04 8.382351e+04 8.384886e+04 8.384886e+04 7.594044e+04 7.594044e+04 7.594044e+04 8.327708e+04 8.327708e+04 8.327708e+04 7.522426e+04 7.896671e+04 8.047397e+04 8.109335e+04 8.109335e+04 8.146086e+04 7.659193e+04 8.452960e+04 8.452960e+04 8.607016e+04 8.607016e+04 8.607016e+04 7.465416e+04 7.473960e+04 7.473960e+04 8.628306e+04 8.628306e+04 8.653880e+04 8.380950e+04 8.367761e+04 8.367761e+04 8.967807e+04 8.967807e+04 8.967807e+04 8.699704e+04 8.699704e+04 9.093264e+04 8.522654e+04 8.132061e+04 8.132061e+04 9.324054e+04 8.030241e+04 8.030241e+04 8.196991e+04 8.280131e+04 8.280131e+04 8.276154e+04 8.843122e+04 8.843122e+04 7.956188e+04 7.956188e+04 8.710502e+04 8.273740e+04 8.273740e+04 8.412754e+04 8.412754e+04 8.446032e+04 8.669953e+04 8.154505e+04 8.154505e+04 8.466455e+04 8.396214e+04 7.625922e+04 7.625922e+04 8.094842e+04 8.235361e+04 8.941890e+04 8.941890e+04 8.941890e+04 8.848576e+04 8.848576e+04 8.848576e+04 8.508308e+04 8.508308e+04 9.138622e+04 9.138622e+04 9.138622e+04 8.316565e+04 8.947028e+04 8.840660e+04 8.863258e+04 9.027861e+04 9.027861e+04 9.027861e+04 8.462807e+04 8.766242e+04 8.766242e+04 8.664923e+04 8.664923e+04 8.664923e+04 9.329800e+04 8.391707e+04 8.708088e+04 8.708088e+04 8.820978e+04 8.820978e+04 8.820978e+04 8.793145e+04 8.963614e+04 8.063090e+04 8.063090e+04 8.063090e+04 8.172750e+04 8.172750e+04 8.242458e+04 9.336058e+04 8.888067e+04 8.593066e+04 8.892203e+04 8.892203e+04 8.887119e+04 8.889172e+04 8.889172e+04 9.215004e+04 9.215004e+04 9.215004e+04 8.761136e+04 8.752758e+04 8.354511e+04 8.978342e+04 9.021608e+04 8.926350e+04 8.403862e+04 9.336349e+04 9.336349e+04 9.346324e+04 9.168479e+04 9.168479e+04 8.842106e+04 9.288102e+04 9.288102e+04 9.288102e+04 9.153554e+04 9.153554e+04 8.598708e+04 8.598708e+04 8.644433e+04 9.056480e+04 9.056480e+04 9.192951e+04 8.756671e+04 8.856795e+04 9.240325e+04 9.364245e+04 9.162198e+04 8.927985e+04 9.364245e+04 9.553016e+04 6.865167e+04 6.865167e+04 7.705118e+04 7.705118e+04 7.025152e+04 7.025152e+04 7.613441e+04 7.454322e+04 7.010826e+04 6.922003e+04 6.659655e+04 9.480481e+04 9.480481e+04 8.953511e+04 7.984877e+04 7.923215e+04 9.206355e+04 9.206355e+04 6.833778e+04 6.882717e+04 6.788104e+04 6.865008e+04 6.865008e+04 6.865008e+04 7.076327e+04 7.076327e+04 7.076327e+04 6.783219e+04 7.133809e+04 7.133809e+04 7.163164e+04 7.163164e+04 6.921113e+04 7.019939e+04 6.983732e+04 8.689879e+04 9.465822e+04 9.636050e+04 9.792198e+04 9.117477e+04 9.117477e+04 8.488302e+04 7.267848e+04 6.966728e+04 7.159409e+04 7.215733e+04 7.215733e+04 7.507970e+04 7.839108e+04 8.195306e+04 8.447311e+04 8.447311e+04 8.685353e+04 9.159097e+04 9.026827e+04 9.304692e+04 9.304692e+04 9.304692e+04 8.629212e+04 8.883560e+04 8.802294e+04 8.802294e+04 7.729992e+04 8.634092e+04 8.634092e+04 8.178644e+04 7.788810e+04 8.343378e+04 8.343378e+04 9.271331e+04 9.271331e+04 9.271331e+04 9.239715e+04 9.239715e+04 9.312640e+04 8.269333e+04 8.371817e+04 8.497120e+04 8.762986e+04 9.141004e+04 7.645287e+04 8.020605e+04 8.040580e+04 8.749383e+04 8.282255e+04 8.903774e+04 8.575055e+04 8.861649e+04 8.861649e+04 9.069976e+04 8.749750e+04 8.848351e+04 9.056653e+04 8.775994e+04 9.281107e+04 9.181307e+04 9.181307e+04 9.207730e+04 9.027424e+04 9.151176e+04 8.784181e+04 8.784181e+04 8.680261e+04 8.664825e+04 8.964773e+04 8.931190e+04 9.116302e+04 8.983807e+04 9.205976e+04 8.753829e+04 9.177169e+04 9.177169e+04 9.177169e+04 9.187812e+04 9.135534e+04 9.135534e+04 8.990791e+04 8.990791e+04 9.094528e+04 9.078358e+04 9.078358e+04 9.269677e+04 9.011591e+04 9.099323e+04 9.048230e+04 9.279274e+04 9.228019e+04 9.324054e+04 9.324054e+04 9.302013e+04 8.706557e+04 9.205670e+04 9.205670e+04 9.231403e+04 9.231403e+04 9.085495e+04 9.279721e+04 9.263009e+04 9.232042e+04 9.232042e+04 6.402314e+04 6.402314e+04 6.394784e+04 6.389054e+04 6.386770e+04 6.385624e+04 6.379397e+04 6.376047e+04 7.142672e+04 7.142672e+04 7.142672e+04 7.082587e+04 6.912984e+04 6.912984e+04 6.912984e+04 6.900218e+04 6.425992e+04 6.425992e+04 6.444494e+04 6.444494e+04 6.437451e+04 6.438724e+04 6.438724e+04 6.438724e+04 6.400054e+04 6.728930e+04 6.728930e+04 6.728930e+04 6.743677e+04 6.785489e+04 6.837853e+04 6.435843e+04 6.435843e+04 6.486839e+04 6.430548e+04 6.430548e+04 6.430548e+04 6.597653e+04 6.597653e+04 6.597653e+04 6.526295e+04 6.526295e+04 6.554105e+04 6.660418e+04 6.447147e+04 6.462275e+04 6.462275e+04 6.465300e+04 6.519035e+04 6.664825e+04 6.664825e+04 6.664825e+04 6.729972e+04 6.729972e+04 6.554105e+04 6.527367e+04 6.559128e+04 6.484560e+04 6.575704e+04 6.575704e+04 6.616746e+04 6.607971e+04 6.661698e+04 6.747598e+04 6.841690e+04 7.059414e+04 7.059414e+04 7.209328e+04 7.335500e+04 7.505822e+04 7.505822e+04 7.505822e+04 7.648826e+04 7.648826e+04 7.996597e+04 8.247122e+04 8.247122e+04 9.122730e+04 8.409710e+04 8.409710e+04 8.409710e+04 8.419105e+04 8.419105e+04 8.175635e+04 8.175635e+04 8.175635e+04 7.263609e+04 7.263609e+04 8.452732e+04 9.263893e+04 9.263893e+04 9.263893e+04 7.956213e+04 7.956213e+04 7.956213e+04 8.008649e+04 8.029652e+04 8.943121e+04 8.943121e+04 8.943121e+04 7.795106e+04 7.795106e+04 7.795106e+04 7.255285e+04 7.255285e+04 7.255285e+04 7.262072e+04 7.262072e+04 7.540594e+04 7.540594e+04 7.540594e+04 8.174189e+04 8.174189e+04 7.447485e+04 7.447485e+04 7.447485e+04 7.462643e+04 7.462643e+04 7.675927e+04 7.675927e+04 7.675927e+04 8.886850e+04 8.886850e+04 8.886850e+04 7.780203e+04 7.780203e+04 7.780203e+04 7.684446e+04 7.684446e+04 8.841896e+04 8.841896e+04 8.841896e+04 8.916280e+04 8.916280e+04 9.656171e+04 9.160763e+04 9.160763e+04 9.160763e+04 9.213210e+04 8.674889e+04 8.674889e+04 8.674889e+04 8.745616e+04 9.071899e+04 9.071899e+04 9.071899e+04 8.098940e+04 7.986968e+04 8.252404e+04 8.252404e+04 8.252404e+04 8.212305e+04 9.153338e+04 9.153338e+04 9.153338e+04 7.542980e+04 7.542980e+04 7.542980e+04 7.615851e+04 7.615851e+04 7.815495e+04 7.815495e+04 7.815495e+04 7.790160e+04 7.668002e+04 7.668002e+04 7.775967e+04 7.775967e+04 7.507336e+04 7.558364e+04 7.578345e+04 8.150608e+04 6.706127e+04 7.512639e+04 7.335500e+04 7.323025e+04 7.323025e+04 8.984549e+04 8.984549e+04 8.984549e+04 8.322969e+04 8.322969e+04 9.364150e+04 9.364150e+04 9.364150e+04 7.202139e+04 7.202139e+04 7.202139e+04 8.540338e+04 8.540338e+04 7.924864e+04 7.924864e+04 8.269474e+04 8.269474e+04 8.269474e+04 7.985380e+04 7.985380e+04 7.985380e+04 7.855261e+04 7.855261e+04 7.855261e+04 7.169706e+04 8.831751e+04 8.831751e+04 8.079479e+04 8.079479e+04 8.224363e+04 8.224363e+04 7.641856e+04 7.641856e+04 7.598052e+04 7.370266e+04 7.370266e+04 7.370266e+04 7.389676e+04 6.751706e+04 6.819555e+04 7.514590e+04 8.583803e+04 8.583803e+04 8.583803e+04 7.746164e+04 7.746164e+04 7.159814e+04 7.159814e+04 7.093715e+04 7.093715e+04 7.095127e+04 7.095127e+04 7.938447e+04 7.938447e+04 7.868373e+04 7.399356e+04 7.399356e+04 8.462934e+04 8.462934e+04 8.462934e+04 7.792347e+04 7.869351e+04 7.542660e+04 8.347442e+04 8.347442e+04 8.347442e+04 8.301687e+04 8.301687e+04 8.301687e+04 8.103124e+04 8.557197e+04 8.557197e+04 8.557197e+04 8.647881e+04 8.647881e+04 8.647881e+04 8.019321e+04 8.019321e+04 7.223962e+04 7.304217e+04 8.257049e+04 8.257049e+04 8.179554e+04 8.179554e+04 8.150324e+04 8.194567e+04 7.678393e+04 8.046977e+04 8.007455e+04 8.007455e+04 7.954504e+04 8.343772e+04 8.621666e+04 8.621666e+04 7.617271e+04 7.570246e+04 8.383718e+04 8.383718e+04 8.575615e+04 8.149534e+04 8.149534e+04 8.086275e+04 8.499750e+04 8.499750e+04 8.499750e+04 8.195845e+04 8.231845e+04 8.458134e+04 8.458134e+04 8.458134e+04 8.682389e+04 8.682389e+04 7.445829e+04 8.053747e+04 7.864553e+04 7.864553e+04 7.900479e+04 8.834579e+04 8.062529e+04 8.062529e+04 8.062529e+04 8.087783e+04 8.146916e+04 8.924592e+04 8.924592e+04 8.924592e+04 8.877262e+04 8.711657e+04 8.711657e+04 8.713409e+04 8.713409e+04 8.327054e+04 7.955906e+04 8.053132e+04 7.998012e+04 8.391195e+04 8.391195e+04 8.391195e+04 8.417734e+04 8.417734e+04 8.831588e+04 8.831588e+04 8.831588e+04 8.141861e+04 8.715085e+04 8.751993e+04 8.751993e+04 8.467981e+04 8.467981e+04 8.310594e+04 8.241819e+04 8.601439e+04 8.601439e+04 8.601439e+04 8.915574e+04 8.915574e+04 9.079517e+04 9.079517e+04 9.079517e+04 8.630575e+04 8.630575e+04 8.567051e+04 8.757499e+04 8.757499e+04 9.231264e+04 9.231264e+04 9.176305e+04 9.176305e+04 8.554149e+04 8.459296e+04 8.459296e+04 9.144869e+04 9.144869e+04 8.299722e+04 8.809677e+04 8.772090e+04 8.772090e+04 8.587939e+04 8.884078e+04 8.884078e+04 8.666992e+04 8.666992e+04 8.666992e+04 8.725684e+04 9.106960e+04 9.106960e+04 9.106960e+04 8.991396e+04 9.072628e+04 8.172532e+04 8.172532e+04 8.172532e+04 8.464732e+04 8.801157e+04 8.944472e+04 8.826681e+04 8.740379e+04 8.588809e+04 8.340518e+04 8.997511e+04 8.997511e+04 9.099627e+04 9.345407e+04 9.345407e+04 9.345407e+04 8.962386e+04 8.968290e+04 8.510337e+04 9.010380e+04 9.051688e+04 9.050440e+04 8.548635e+04 9.121637e+04 9.121637e+04 8.995734e+04 8.657601e+04 9.397719e+04 9.392202e+04 8.761491e+04 8.761491e+04 8.862361e+04 9.207465e+04 9.397719e+04 9.252216e+04 9.252216e+04 9.252216e+04 9.269807e+04 8.806773e+04 9.046192e+04 9.428695e+04 9.331066e+04 9.331066e+04 9.331066e+04 9.274350e+04 9.274350e+04 9.428695e+04 9.122412e+04 9.122412e+04 9.398448e+04 9.011896e+04 9.011896e+04 9.002951e+04 9.124249e+04 9.454497e+04 9.454497e+04 9.454497e+04 9.216000e+04 9.271725e+04 9.271725e+04 9.405532e+04 9.122730e+04 9.122730e+04 9.481298e+04 9.421526e+04 9.437474e+04 9.349006e+04 9.349006e+04 9.317851e+04 9.517841e+04 9.513861e+04 9.513861e+04 9.568869e+04 9.481298e+04 9.481298e+04 9.544023e+04 8.150908e+04 7.447085e+04 7.008957e+04 6.803488e+04 6.803488e+04 7.960509e+04 7.680085e+04 7.680085e+04 7.392003e+04 7.363280e+04 7.092161e+04 7.092161e+04 6.954837e+04 7.315773e+04 6.781401e+04 6.895761e+04 7.062226e+04 8.414404e+04 8.927123e+04 9.238442e+04 7.860261e+04 6.938870e+04 6.962457e+04 7.254610e+04 8.703809e+04 8.706837e+04 9.126825e+04 9.194548e+04 7.865980e+04 9.172999e+04 7.785631e+04 9.203068e+04 9.303240e+04 9.303240e+04 9.303240e+04 9.030295e+04 8.324120e+04 8.324120e+04 8.366811e+04 7.823378e+04 7.724195e+04 7.976687e+04 8.513503e+04 8.021381e+04 8.354849e+04 8.676972e+04 8.741027e+04 8.741027e+04 8.870179e+04 8.998712e+04 8.386574e+04 8.663687e+04 8.663687e+04 8.416927e+04 8.610013e+04 9.044122e+04 8.690554e+04 9.010835e+04 9.071056e+04 8.756641e+04 8.990744e+04 8.958871e+04 8.958871e+04 8.790839e+04 8.903546e+04 8.876969e+04 9.206908e+04 9.238705e+04 9.238705e+04 9.094598e+04 8.719267e+04 9.146970e+04 9.146970e+04 8.959614e+04 9.260488e+04 9.260488e+04 9.201086e+04 9.201086e+04 9.062625e+04 9.126952e+04 8.998817e+04 8.979244e+04 9.311396e+04 9.311396e+04 9.311396e+04 8.790245e+04 9.110431e+04 9.165350e+04 9.301425e+04 9.031610e+04 8.788834e+04 8.846221e+04 9.194387e+04 8.908903e+04 9.128302e+04 9.128302e+04 9.113795e+04 9.266941e+04 9.266941e+04 9.061787e+04 9.061787e+04 9.035956e+04 8.515438e+04 9.155158e+04 9.218825e+04 9.246114e+04 9.359173e+04 9.320862e+04 9.221118e+04 9.138229e+04 9.181851e+04 9.288922e+04 8.920395e+04 8.861142e+04 8.803188e+04 8.755155e+04 8.680304e+04 8.627462e+04 8.568341e+04 8.510486e+04 8.444709e+04 8.394693e+04 8.342156e+04 8.284568e+04 8.238086e+04 8.179996e+04 8.131821e+04 8.084928e+04 8.024701e+04 7.975585e+04 7.927973e+04 7.877229e+04 7.823537e+04 7.776326e+04 7.729286e+04 7.678279e+04 7.632991e+04 7.588728e+04 7.542225e+04 7.499138e+04 7.451415e+04 7.412967e+04 7.371175e+04 7.330826e+04 7.289095e+04 7.247436e+04 7.211020e+04 7.169976e+04 7.132486e+04 7.094372e+04 7.061897e+04 7.022599e+04 6.991911e+04 6.958442e+04 6.917719e+04 6.893160e+04 6.858858e+04 6.825759e+04 6.798209e+04 6.765663e+04 6.742119e+04 6.717519e+04 6.691683e+04 6.667513e+04 6.642479e+04 6.619916e+04 6.600936e+04 6.583233e+04 6.564041e+04 6.543149e+04 6.524739e+04 6.509292e+04 6.494377e+04 6.480489e+04 6.463748e+04 6.456349e+04 6.445230e+04 6.431897e+04 6.422232e+04 6.411422e+04 6.402243e+04 6.395669e+04 6.391116e+04 6.384803e+04 6.377278e+04 6.376961e+04 6.371558e+04 6.373915e+04 6.373786e+04 6.447467e+04 6.519035e+04 6.626083e+04 6.703167e+04 6.703167e+04 6.803488e+04 6.898623e+04 6.954837e+04 7.008957e+04 7.008957e+04 7.092161e+04 7.162405e+04 7.213589e+04 7.263609e+04 7.283676e+04 7.385501e+04 7.407738e+04 7.447085e+04 7.507336e+04 7.550771e+04 7.586123e+04 7.645497e+04 7.682721e+04 7.724195e+04 7.786490e+04 7.786490e+04 7.836548e+04 7.906979e+04 7.924864e+04 7.960509e+04 7.985704e+04 8.021381e+04 8.079479e+04 8.133882e+04 8.150908e+04 8.181243e+04 8.224363e+04 8.244320e+04 8.306639e+04 8.324120e+04 8.354849e+04 8.386574e+04 8.402797e+04 8.463415e+04 8.473559e+04 8.513503e+04 8.540338e+04 8.563655e+04 8.610013e+04 8.620360e+04 8.676972e+04 8.676972e+04 8.703693e+04 8.741027e+04 8.790839e+04 8.790839e+04 8.831751e+04 8.870179e+04 8.870179e+04 8.903546e+04 8.936807e+04 8.958871e+04 8.998712e+04 8.998712e+04 9.044122e+04 9.044122e+04 9.071056e+04 9.094598e+04 9.126952e+04 9.146970e+04 9.165350e+04 9.206908e+04 9.206908e+04 9.238705e+04 9.260120e+04 9.280708e+04 9.312576e+04 9.312576e+04 9.085704e+04 9.085704e+04 9.085704e+04 9.119596e+04 9.741064e+04 9.741064e+04 9.741064e+04 9.384770e+04 9.384770e+04 9.384770e+04 9.485665e+04 8.741988e+04 8.741988e+04 8.741988e+04 8.659489e+04 8.255871e+04 8.255871e+04 8.255871e+04 8.163670e+04 7.086003e+04 7.086003e+04 7.086003e+04 7.108846e+04 7.172799e+04 7.371148e+04 7.371148e+04 7.371148e+04 7.416018e+04 9.097897e+04 9.097897e+04 9.097897e+04 8.404687e+04 8.404687e+04 8.404687e+04 8.445182e+04 8.426359e+04 6.849941e+04 6.849941e+04 6.849941e+04 6.795057e+04 8.825235e+04 8.825235e+04 8.825235e+04 8.903433e+04 8.903433e+04 7.560288e+04 7.560288e+04 7.560288e+04 7.545308e+04 7.546300e+04 6.856701e+04 6.856701e+04 6.856701e+04 6.843127e+04 6.850404e+04 7.719626e+04 7.719626e+04 7.719626e+04 7.714973e+04 6.573023e+04 6.573023e+04 6.573023e+04 8.839226e+04 8.839226e+04 7.737625e+04 7.737625e+04 7.209980e+04 7.209980e+04 7.209980e+04 7.169272e+04 6.699249e+04 6.699249e+04 6.699249e+04 6.652331e+04 6.469871e+04 6.469871e+04 6.525385e+04 6.525385e+04 7.148341e+04 7.148341e+04 7.148341e+04 7.130061e+04 7.130061e+04 6.649995e+04 6.649995e+04 6.649995e+04 6.704371e+04 6.704371e+04 8.913889e+04 7.126884e+04 7.126884e+04 7.126884e+04 7.176661e+04 8.522249e+04 8.522249e+04 8.522249e+04 8.497241e+04 8.497241e+04 8.059595e+04 8.059595e+04 8.059595e+04 8.168837e+04 8.168837e+04 7.706156e+04 7.706156e+04 7.706156e+04 7.695063e+04 7.695063e+04 7.482200e+04 7.482200e+04 7.482200e+04 7.592990e+04 7.592990e+04 8.941416e+04 8.941416e+04 8.941416e+04 8.956813e+04 8.891314e+04 8.891314e+04 8.891314e+04 8.816411e+04 7.991070e+04 7.991070e+04 7.991070e+04 7.900127e+04 7.900127e+04 9.427109e+04 9.427109e+04 9.427109e+04 8.817654e+04 8.817654e+04 8.817654e+04 8.856259e+04 8.856259e+04 9.285607e+04 9.285607e+04 9.285607e+04 9.439039e+04 9.439039e+04 8.631982e+04 8.631982e+04 8.631982e+04 8.742454e+04 7.988178e+04 7.988178e+04 7.310012e+04 7.310012e+04 7.310012e+04 8.550120e+04 8.550120e+04 8.676504e+04 8.676504e+04 8.742818e+04 8.742818e+04 8.742818e+04 8.740773e+04 6.708004e+04 6.708004e+04 6.708004e+04 6.751947e+04 8.753823e+04 8.753823e+04 6.756262e+04 6.756262e+04 6.756262e+04 7.997665e+04 7.997665e+04 7.997665e+04 7.974212e+04 7.974212e+04 6.524109e+04 6.524109e+04 6.524109e+04 6.584513e+04 6.584513e+04 6.433251e+04 6.433251e+04 6.416755e+04 6.436950e+04 6.436950e+04 6.436950e+04 8.009097e+04 8.009097e+04 7.451415e+04 6.724870e+04 6.724870e+04 6.724870e+04 6.529021e+04 7.717294e+04 7.669386e+04 6.933779e+04 6.933779e+04 6.933779e+04 6.596690e+04 6.596690e+04 6.596690e+04 6.446997e+04 6.446997e+04 6.446997e+04 6.823203e+04 6.823203e+04 6.823203e+04 6.909115e+04 6.909115e+04 7.214266e+04 7.214266e+04 7.214266e+04 7.107808e+04 7.107808e+04 7.300461e+04 7.300461e+04 7.360711e+04 7.360711e+04 7.232221e+04 7.232221e+04 7.278841e+04 8.920260e+04 8.920260e+04 8.901664e+04 8.901664e+04 8.898796e+04 8.898796e+04 9.943550e+04 9.879597e+04 9.943550e+04 9.943550e+04 8.336683e+04 8.172387e+04 8.172387e+04 7.308555e+04 7.308555e+04 7.308555e+04 7.163688e+04 7.163688e+04 7.163688e+04 8.694828e+04 7.903115e+04 7.903115e+04 7.842607e+04 7.842607e+04 7.836751e+04 8.061742e+04 7.626222e+04 6.480489e+04 6.548365e+04 6.548365e+04 7.066530e+04 7.066530e+04 7.025641e+04 7.371175e+04 7.434142e+04 7.434142e+04 6.472334e+04 6.472334e+04 6.472334e+04 6.438390e+04 6.454829e+04 8.680304e+04 8.708335e+04 8.708335e+04 7.211020e+04 7.264544e+04 7.264544e+04 8.913889e+04 7.935493e+04 7.935493e+04 7.286384e+04 8.462960e+04 8.462960e+04 8.462960e+04 6.635101e+04 7.155868e+04 7.155868e+04 7.108023e+04 8.139421e+04 8.139421e+04 8.139421e+04 8.208730e+04 8.208730e+04 8.182689e+04 8.374251e+04 8.374251e+04 7.333191e+04 8.510486e+04 8.551315e+04 6.463692e+04 6.463692e+04 6.495739e+04 6.523674e+04 6.518024e+04 6.518024e+04 6.546564e+04 6.564041e+04 6.622276e+04 6.622276e+04 6.728183e+04 8.627462e+04 8.669284e+04 6.518385e+04 7.604994e+04 6.429919e+04 8.361315e+04 8.361315e+04 6.819138e+04 6.810294e+04 6.468846e+04 6.962846e+04 6.962846e+04 6.962846e+04 7.017050e+04 7.017050e+04 8.765347e+04 8.765347e+04 7.405290e+04 8.309036e+04 8.277801e+04 6.522635e+04 6.671263e+04 6.671263e+04 8.823831e+04 7.911427e+04 7.259677e+04 6.933723e+04 8.723607e+04 7.303972e+04 7.354670e+04 7.243038e+04 7.278376e+04 7.278376e+04 7.752656e+04 6.444571e+04 6.993278e+04 7.049602e+04 6.555790e+04 8.657769e+04 8.657769e+04 8.620733e+04 7.295554e+04 7.380999e+04 7.380999e+04 6.656879e+04 8.410508e+04 8.410508e+04 8.410508e+04 8.379352e+04 6.542625e+04 6.526456e+04 