<?xml version="1.0"?>
 <VTKFile type="UnstructuredGrid" version="1.0" byte_order="LittleEndian" header_type="UInt64">
  <UnstructuredGrid>
    <FieldData>
     <DataArray type="Float64" Name="TimeValue" NumberOfTuples="1" format="ascii">
0.00013
     </DataArray>
    </FieldData>
   <Piece NumberOfPoints="3662" NumberOfCells="3444">
    <PointData>
     <DataArray type="Float64" Name="pointP" format="ascii">
1.452288e+05 1.452278e+05 1.452573e+05 1.451732e+05 1.450950e+05 1.450462e+05 1.449660e+05 1.449044e+05 1.448282e+05 1.447690e+05 1.446630e+05 1.445481e+05 1.443993e+05 1.442560e+05 1.440727e+05 1.439571e+05 1.438153e+05 1.436396e+05 1.434285e+05 1.432286e+05 1.430536e+05 1.427979e+05 1.426012e+05 1.423905e+05 1.421910e+05 1.420001e+05 1.417102e+05 1.414525e+05 1.411664e+05 1.408084e+05 1.404530e+05 1.402274e+05 1.398666e+05 1.396369e+05 1.393229e+05 1.389548e+05 1.386064e+05 1.383097e+05 1.378579e+05 1.374408e+05 1.370774e+05 1.366887e+05 1.363272e+05 1.358993e+05 1.355290e+05 1.351080e+05 1.346788e+05 1.342264e+05 1.337704e+05 1.333075e+05 1.328954e+05 1.324193e+05 1.319884e+05 1.314239e+05 1.309531e+05 1.304562e+05 1.298374e+05 1.294005e+05 1.288679e+05 1.282511e+05 1.278862e+05 1.274136e+05 1.267628e+05 1.262444e+05 1.257030e+05 1.251839e+05 1.245552e+05 1.240147e+05 1.234248e+05 1.229026e+05 1.222636e+05 1.216643e+05 1.210948e+05 1.201037e+05 1.198350e+05 1.192954e+05 1.187392e+05 1.181509e+05 1.175030e+05 1.168449e+05 1.162919e+05 1.156959e+05 1.150292e+05 1.144354e+05 1.138201e+05 1.131992e+05 1.124985e+05 1.118576e+05 1.112834e+05 1.106876e+05 1.100738e+05 1.093467e+05 1.087787e+05 1.080292e+05 1.074370e+05 1.067786e+05 1.060802e+05 1.054640e+05 1.048465e+05 1.042133e+05 1.036179e+05 1.029623e+05 1.023524e+05 1.016979e+05 1.010961e+05 1.003684e+05 9.972864e+04 9.907127e+04 9.843745e+04 9.779908e+04 9.722117e+04 9.651296e+04 9.592564e+04 9.529456e+04 9.472018e+04 9.411920e+04 9.343167e+04 9.284065e+04 9.226444e+04 9.171681e+04 9.103214e+04 9.046557e+04 8.977567e+04 8.977567e+04 1.036590e+05 1.059003e+05 1.069409e+05 1.070530e+05 1.073259e+05 1.077499e+05 1.080880e+05 1.080880e+05 1.081330e+05 1.082984e+05 1.084416e+05 1.084416e+05 1.088926e+05 1.088926e+05 1.094593e+05 1.097538e+05 1.098731e+05 1.102637e+05 1.106961e+05 1.117915e+05 1.117915e+05 1.130555e+05 1.130555e+05 1.137758e+05 1.152643e+05 1.156562e+05 1.166009e+05 1.170681e+05 1.184397e+05 1.193994e+05 1.202999e+05 1.217630e+05 1.222357e+05 1.238084e+05 1.254211e+05 1.266895e+05 1.278009e+05 1.278009e+05 1.288406e+05 1.310173e+05 1.310173e+05 1.332855e+05 1.339742e+05 1.339742e+05 1.354769e+05 1.369536e+05 1.369536e+05 1.383029e+05 1.391025e+05 1.403017e+05 1.403017e+05 1.410803e+05 1.422893e+05 1.429952e+05 1.441557e+05 1.445514e+05 1.034663e+05 1.127517e+05 1.127517e+05 1.127517e+05 1.133344e+05 1.096161e+05 1.096161e+05 1.096161e+05 1.103442e+05 1.103442e+05 1.142522e+05 1.142522e+05 1.142522e+05 1.144595e+05 1.140716e+05 1.021861e+05 1.107964e+05 1.107964e+05 1.102386e+05 1.129499e+05 1.129499e+05 1.129499e+05 1.125141e+05 1.121261e+05 1.265522e+05 1.265522e+05 1.265522e+05 1.259818e+05 1.056237e+05 1.056237e+05 1.056237e+05 1.052940e+05 1.049460e+05 1.049460e+05 1.121064e+05 1.121064e+05 1.096528e+05 1.092430e+05 1.034663e+05 1.034663e+05 1.073557e+05 1.073557e+05 1.073557e+05 1.071166e+05 1.066224e+05 1.066224e+05 1.069836e+05 1.108679e+05 1.108679e+05 1.108679e+05 1.109407e+05 1.102702e+05 1.118403e+05 1.117888e+05 1.069042e+05 1.069042e+05 1.069042e+05 1.060566e+05 9.927484e+04 9.707046e+04 9.522697e+04 9.707046e+04 1.231337e+05 1.231337e+05 1.231337e+05 1.277305e+05 1.277305e+05 1.277305e+05 1.266034e+05 9.237381e+04 9.157918e+04 9.237381e+04 9.237381e+04 1.208258e+05 1.208258e+05 1.208258e+05 1.208151e+05 1.314246e+05 1.314246e+05 1.314246e+05 1.310811e+05 1.362025e+05 1.362025e+05 1.362025e+05 1.352095e+05 1.352095e+05 9.553983e+04 9.553983e+04 9.553983e+04 9.515317e+04 1.009858e+05 1.009858e+05 1.009858e+05 1.001494e+05 1.001494e+05 1.410153e+05 1.410153e+05 1.410153e+05 1.414060e+05 1.134516e+05 1.134516e+05 1.134516e+05 1.135119e+05 1.135119e+05 8.939154e+04 8.979785e+04 1.368522e+05 1.368522e+05 1.368522e+05 1.365723e+05 1.396482e+05 1.396482e+05 1.396482e+05 1.401904e+05 1.401904e+05 1.180633e+05 1.180633e+05 1.180633e+05 1.178785e+05 1.382478e+05 1.382478e+05 1.382478e+05 1.378562e+05 9.529456e+04 1.263598e+05 1.263598e+05 1.263598e+05 1.205351e+05 1.205351e+05 1.205351e+05 1.200900e+05 1.148831e+05 1.148831e+05 1.148831e+05 1.146530e+05 1.054640e+05 1.026583e+05 1.026583e+05 1.026583e+05 1.023848e+05 1.108232e+05 1.108232e+05 1.108232e+05 1.109022e+05 1.109022e+05 8.979785e+04 8.979785e+04 8.939154e+04 1.362517e+05 1.362517e+05 1.362517e+05 1.373380e+05 1.373380e+05 1.134151e+05 1.140055e+05 1.140055e+05 1.308967e+05 1.308967e+05 1.308967e+05 1.320062e+05 1.320062e+05 1.295903e+05 1.295903e+05 1.295903e+05 1.299714e+05 9.596128e+04 9.504654e+04 9.596128e+04 9.596128e+04 9.646086e+04 1.102007e+05 1.102007e+05 1.102007e+05 1.109327e+05 1.120090e+05 1.131722e+05 1.131722e+05 1.049854e+05 1.049854e+05 1.034709e+05 1.034709e+05 1.147872e+05 1.147872e+05 1.147872e+05 1.163227e+05 1.163227e+05 1.042637e+05 1.042637e+05 1.042637e+05 1.042606e+05 1.036086e+05 1.085881e+05 1.070403e+05 1.212984e+05 1.212984e+05 1.212984e+05 1.208232e+05 1.254285e+05 1.254285e+05 1.254285e+05 1.247287e+05 1.155921e+05 1.155921e+05 1.155921e+05 1.295230e+05 1.295230e+05 1.295230e+05 1.050058e+05 1.050058e+05 1.050058e+05 1.334235e+05 1.334235e+05 1.334235e+05 9.598067e+04 9.598067e+04 9.598067e+04 9.593596e+04 9.525328e+04 1.056132e+05 1.056132e+05 1.056132e+05 9.729396e+04 9.729396e+04 9.743761e+04 1.178415e+05 1.178415e+05 1.178415e+05 1.185748e+05 1.080820e+05 1.080820e+05 1.080820e+05 1.079936e+05 1.041329e+05 1.041329e+05 1.397015e+05 1.397015e+05 1.397015e+05 1.390583e+05 9.224474e+04 9.224474e+04 9.224474e+04 9.226596e+04 9.890631e+04 9.890631e+04 9.890631e+04 9.906650e+04 1.363773e+05 1.363773e+05 1.363773e+05 1.221622e+05 1.221622e+05 1.221622e+05 1.223726e+05 1.094827e+05 1.094827e+05 1.094827e+05 1.095650e+05 1.090059e+05 1.090059e+05 1.090059e+05 1.088064e+05 1.146576e+05 1.146576e+05 1.146576e+05 1.151151e+05 1.432228e+05 1.432228e+05 1.432228e+05 1.412575e+05 1.412575e+05 1.412575e+05 1.412026e+05 1.395525e+05 1.395525e+05 1.395525e+05 1.391817e+05 1.370840e+05 1.370840e+05 1.367771e+05 1.217589e+05 1.217589e+05 1.216714e+05 9.938806e+04 9.938806e+04 9.948381e+04 1.119999e+05 1.119999e+05 1.119999e+05 1.122785e+05 1.171097e+05 1.171097e+05 1.171097e+05 1.411382e+05 1.411382e+05 1.409867e+05 1.193676e+05 1.193676e+05 1.189946e+05 1.127021e+05 1.382920e+05 1.381982e+05 1.017900e+05 1.017900e+05 1.013808e+05 1.431326e+05 1.431326e+05 1.431326e+05 1.433982e+05 1.164876e+05 1.164876e+05 1.346557e+05 1.346557e+05 1.346557e+05 1.437535e+05 1.437535e+05 1.437535e+05 1.435803e+05 1.435803e+05 1.420652e+05 1.420652e+05 1.420652e+05 1.424668e+05 1.400318e+05 1.400318e+05 1.400318e+05 1.397301e+05 1.397301e+05 1.045064e+05 1.045064e+05 1.045064e+05 1.039649e+05 1.039649e+05 1.401464e+05 1.401464e+05 1.407934e+05 1.407934e+05 1.422764e+05 1.422764e+05 1.422764e+05 1.363343e+05 1.363343e+05 1.363343e+05 1.371001e+05 1.020274e+05 1.020274e+05 1.020274e+05 1.019760e+05 1.019760e+05 9.106982e+04 9.106982e+04 9.106982e+04 9.188989e+04 9.188989e+04 1.109232e+05 1.109232e+05 1.109232e+05 1.122870e+05 1.122870e+05 1.231805e+05 1.231805e+05 1.231805e+05 1.238479e+05 1.238479e+05 1.286482e+05 1.286482e+05 1.286482e+05 1.299048e+05 1.305404e+05 1.305404e+05 1.338705e+05 1.338705e+05 1.338705e+05 1.325783e+05 1.325783e+05 9.898198e+04 9.898198e+04 9.898198e+04 9.955030e+04 9.955030e+04 1.078684e+05 1.078684e+05 1.078684e+05 1.095063e+05 1.095063e+05 1.082596e+05 1.082596e+05 1.066511e+05 1.066511e+05 1.176927e+05 1.176927e+05 1.190382e+05 1.190382e+05 1.085345e+05 1.068328e+05 1.068328e+05 1.163076e+05 1.163076e+05 1.163076e+05 1.166827e+05 1.166827e+05 1.137658e+05 1.137658e+05 1.053109e+05 1.053109e+05 1.053109e+05 1.055914e+05 1.117232e+05 1.009600e+05 1.003610e+05 1.078662e+05 1.078662e+05 1.078662e+05 1.081055e+05 1.081055e+05 1.000513e+05 1.000513e+05 9.927326e+04 9.892759e+04 9.933576e+04 1.316786e+05 1.316786e+05 1.316786e+05 1.308655e+05 1.354713e+05 1.354713e+05 1.348404e+05 1.098487e+05 1.098487e+05 1.098487e+05 9.312925e+04 9.312925e+04 9.312925e+04 9.280989e+04 9.263794e+04 1.415793e+05 1.415793e+05 1.415793e+05 1.154091e+05 1.000005e+05 9.449292e+04 9.449292e+04 1.389399e+05 1.389399e+05 1.245552e+05 1.247411e+05 1.247411e+05 1.247411e+05 1.284080e+05 1.284080e+05 1.284080e+05 1.280983e+05 1.452573e+05 1.448624e+05 1.448624e+05 1.441534e+05 1.441534e+05 1.441534e+05 1.442993e+05 1.049886e+05 1.049886e+05 1.046494e+05 1.067786e+05 1.448202e+05 1.448202e+05 1.416438e+05 1.416438e+05 1.090407e+05 1.090407e+05 9.735727e+04 9.735727e+04 9.735727e+04 1.438826e+05 1.438826e+05 1.440364e+05 8.952115e+04 8.952115e+04 9.008714e+04 1.403616e+05 1.435214e+05 1.430080e+05 1.430080e+05 1.430857e+05 1.235747e+05 1.235747e+05 1.235747e+05 1.235382e+05 1.324193e+05 1.324932e+05 1.451732e+05 1.446380e+05 1.359956e+05 1.359956e+05 1.332898e+05 1.332898e+05 1.332898e+05 1.333120e+05 1.081929e+05 1.081929e+05 1.076742e+05 1.076742e+05 1.205583e+05 1.426387e+05 1.426387e+05 1.421664e+05 1.271760e+05 1.271760e+05 1.271760e+05 9.651296e+04 1.449044e+05 1.441382e+05 1.303203e+05 1.303203e+05 1.303203e+05 1.300294e+05 9.635250e+04 9.635250e+04 9.622146e+04 1.295165e+05 1.295165e+05 1.294816e+05 1.009863e+05 1.009863e+05 1.108087e+05 1.108087e+05 1.445141e+05 1.378579e+05 1.377900e+05 1.288111e+05 1.436930e+05 1.436930e+05 1.342603e+05 9.875684e+04 9.824244e+04 9.824244e+04 1.062590e+05 1.062590e+05 1.059193e+05 1.059193e+05 1.420687e+05 1.420687e+05 1.252640e+05 1.438826e+05 1.225204e+05 1.225204e+05 1.228063e+05 1.310413e+05 1.310413e+05 1.310413e+05 1.446980e+05 1.446980e+05 1.148942e+05 9.421320e+04 9.421320e+04 1.321748e+05 1.317455e+05 1.351504e+05 1.198460e+05 9.046557e+04 9.103214e+04 1.427331e+05 1.278432e+05 9.166523e+04 9.166523e+04 9.166523e+04 9.098954e+04 1.414162e+05 9.002997e+04 9.870221e+04 9.870221e+04 1.342264e+05 1.325667e+05 1.032659e+05 1.032659e+05 1.429811e+05 1.429811e+05 9.325638e+04 9.325638e+04 1.065601e+05 1.262260e+05 1.262260e+05 1.013118e+05 1.065852e+05 1.142693e+05 1.140525e+05 1.253359e+05 1.253359e+05 1.245834e+05 1.245834e+05 1.001564e+05 1.141916e+05 1.442474e+05 9.146214e+04 1.133489e+05 1.336697e+05 1.389143e+05 9.100012e+04 1.025227e+05 1.031691e+05 1.059191e+05 1.328508e+05 1.326242e+05 1.444197e+05 1.444197e+05 1.254710e+05 1.248246e+05 1.366948e+05 1.044124e+05 1.394073e+05 1.394073e+05 1.352198e+05 1.352198e+05 1.352198e+05 1.118338e+05 1.243956e+05 9.725825e+04 1.405324e+05 1.408040e+05 1.408542e+05 1.408542e+05 1.408542e+05 1.312028e+05 1.312028e+05 1.312028e+05 1.314592e+05 1.440569e+05 1.237253e+05 1.236158e+05 1.129310e+05 1.129310e+05 1.129310e+05 1.340981e+05 1.340981e+05 1.340981e+05 1.347034e+05 1.290184e+05 1.290184e+05 1.295415e+05 1.209542e+05 1.204963e+05 1.000733e+05 1.003023e+05 9.835226e+04 9.835226e+04 9.805145e+04 9.398622e+04 9.398622e+04 9.375955e+04 9.375955e+04 1.048717e+05 1.432413e+05 1.104962e+05 1.441315e+05 1.437380e+05 1.432522e+05 1.432522e+05 1.428405e+05 1.428405e+05 1.352537e+05 1.364013e+05 1.187719e+05 1.415591e+05 1.415591e+05 1.352628e+05 1.352628e+05 1.401406e+05 1.161413e+05 1.161413e+05 1.161413e+05 1.379448e+05 1.159210e+05 9.519540e+04 9.519540e+04 9.519540e+04 9.538970e+04 9.538970e+04 1.301422e+05 1.302693e+05 1.434332e+05 1.434332e+05 1.439823e+05 9.257304e+04 9.297962e+04 1.282235e+05 1.282235e+05 1.254149e+05 1.317453e+05 1.417681e+05 9.677491e+04 9.677491e+04 9.677491e+04 9.750099e+04 1.436378e+05 1.436378e+05 1.433768e+05 1.430226e+05 1.422797e+05 1.422797e+05 1.068944e+05 1.068944e+05 1.068944e+05 1.081653e+05 9.909191e+04 1.083271e+05 1.077071e+05 1.077071e+05 1.220830e+05 1.187094e+05 1.187094e+05 1.195322e+05 1.360792e+05 1.350567e+05 1.350567e+05 1.419014e+05 1.419014e+05 8.979279e+04 1.231081e+05 1.231081e+05 1.122060e+05 1.113116e+05 1.113116e+05 1.171713e+05 1.173162e+05 1.230814e+05 1.403383e+05 9.856209e+04 9.856209e+04 9.856209e+04 1.033558e+05 1.416674e+05 1.413533e+05 1.158362e+05 1.158362e+05 1.401022e+05 1.401022e+05 1.401022e+05 1.298895e+05 1.298895e+05 1.298895e+05 1.249316e+05 1.056289e+05 1.287408e+05 1.287408e+05 1.287408e+05 9.340202e+04 1.432260e+05 1.037188e+05 1.047409e+05 1.220570e+05 1.220970e+05 1.220970e+05 1.272898e+05 1.200605e+05 1.422102e+05 1.424361e+05 1.424361e+05 1.184205e+05 1.390117e+05 1.390117e+05 1.388445e+05 1.383974e+05 1.401317e+05 1.394311e+05 1.394311e+05 1.378701e+05 1.279635e+05 1.279635e+05 1.275472e+05 1.275472e+05 1.387545e+05 1.387545e+05 1.378463e+05 1.378463e+05 1.170841e+05 1.425665e+05 1.417991e+05 1.206242e+05 1.206242e+05 1.336479e+05 9.108651e+04 1.347130e+05 1.372183e+05 1.328609e+05 1.328609e+05 1.127788e+05 9.939428e+04 1.300560e+05 1.396072e+05 1.398455e+05 1.398455e+05 9.809497e+04 1.304192e+05 1.304192e+05 1.311415e+05 1.163230e+05 1.163230e+05 1.163230e+05 1.091885e+05 1.263295e+05 9.586064e+04 9.586064e+04 9.606477e+04 1.338967e+05 1.338967e+05 1.295287e+05 1.405234e+05 1.405234e+05 1.405234e+05 1.233482e+05 1.413344e+05 1.251188e+05 1.321731e+05 1.316807e+05 1.197304e+05 1.192011e+05 1.192011e+05 1.066131e+05 1.060657e+05 1.060657e+05 9.417286e+04 9.367123e+04 1.051924e+05 1.044824e+05 1.044824e+05 1.404733e+05 1.404733e+05 1.404733e+05 1.387394e+05 1.379822e+05 1.379822e+05 1.100842e+05 1.408687e+05 1.325170e+05 1.210417e+05 1.210417e+05 9.007393e+04 9.007393e+04 1.013847e+05 1.418507e+05 1.418507e+05 1.118879e+05 1.350341e+05 1.340178e+05 1.340178e+05 1.243150e+05 1.243150e+05 1.334317e+05 1.334317e+05 1.191519e+05 1.177620e+05 1.028144e+05 1.309578e+05 1.410230e+05 1.410230e+05 1.383209e+05 1.288185e+05 1.288185e+05 1.274644e+05 1.274644e+05 8.989562e+04 1.179450e+05 1.070874e+05 1.076785e+05 1.219703e+05 1.213133e+05 1.011364e+05 1.264341e+05 1.264341e+05 1.264341e+05 1.391260e+05 1.391260e+05 1.399925e+05 1.024923e+05 1.024923e+05 1.024923e+05 9.806491e+04 9.806491e+04 1.341644e+05 1.341644e+05 1.350792e+05 1.395343e+05 1.391846e+05 1.157953e+05 1.369335e+05 1.369335e+05 1.364023e+05 1.203514e+05 1.380185e+05 1.380185e+05 1.252264e+05 1.060785e+05 1.060785e+05 1.060785e+05 1.047473e+05 1.296374e+05 9.161563e+04 9.285957e+04 9.428527e+04 9.639201e+04 1.290154e+05 1.280247e+05 1.094458e+05 1.404367e+05 1.383221e+05 1.383221e+05 1.383221e+05 1.385898e+05 1.084032e+05 1.390452e+05 1.350616e+05 1.353329e+05 1.255476e+05 1.255476e+05 1.255476e+05 1.148645e+05 1.148645e+05 1.148645e+05 1.172343e+05 1.172343e+05 1.375549e+05 1.369232e+05 1.369232e+05 1.369232e+05 1.171347e+05 1.323567e+05 1.323567e+05 1.323567e+05 1.192723e+05 1.269118e+05 1.269118e+05 1.269118e+05 1.007008e+05 1.007008e+05 1.007008e+05 9.568392e+04 1.072574e+05 1.353021e+05 1.353021e+05 1.320794e+05 1.384951e+05 1.121053e+05 1.104551e+05 1.104551e+05 1.104551e+05 1.222542e+05 1.344579e+05 1.339536e+05 1.019671e+05 1.010246e+05 1.197026e+05 9.273849e+04 1.358573e+05 1.358573e+05 1.371488e+05 1.370127e+05 1.297827e+05 1.180427e+05 1.359822e+05 1.099614e+05 1.099614e+05 1.162203e+05 1.211454e+05 1.143748e+05 1.143748e+05 1.138500e+05 1.122907e+05 9.892398e+04 9.892398e+04 1.254838e+05 1.254838e+05 1.264180e+05 1.280405e+05 1.345279e+05 1.340874e+05 1.183132e+05 1.194948e+05 1.297435e+05 1.378965e+05 1.372334e+05 1.002606e+05 9.481799e+04 9.481799e+04 9.481799e+04 1.347069e+05 1.347069e+05 1.236785e+05 1.236785e+05 1.228023e+05 1.331482e+05 1.289252e+05 1.278388e+05 1.278388e+05 1.059719e+05 1.059719e+05 1.071550e+05 1.034829e+05 1.034829e+05 1.155332e+05 1.027797e+05 1.015973e+05 1.109490e+05 1.083857e+05 1.118084e+05 1.133284e+05 1.286560e+05 1.239582e+05 1.239582e+05 1.239582e+05 1.260038e+05 1.334368e+05 1.358458e+05 1.177698e+05 1.333629e+05 1.230683e+05 1.230683e+05 1.246814e+05 1.204872e+05 1.204872e+05 1.195356e+05 1.195356e+05 1.132188e+05 1.138590e+05 9.539354e+04 9.598567e+04 1.182316e+05 1.050329e+05 1.222603e+05 1.222603e+05 1.154747e+05 1.154747e+05 1.154747e+05 1.141569e+05 1.325335e+05 1.316562e+05 1.162779e+05 1.006735e+05 1.110708e+05 1.258375e+05 1.177459e+05 1.177459e+05 1.224500e+05 1.224500e+05 1.032082e+05 1.032082e+05 1.204240e+05 1.320655e+05 1.292076e+05 1.292076e+05 1.277579e+05 9.710828e+04 1.221716e+05 1.307856e+05 1.117077e+05 1.117077e+05 1.105999e+05 1.157264e+05 1.167492e+05 1.281786e+05 1.281786e+05 1.119719e+05 1.119719e+05 1.053357e+05 1.035901e+05 1.035901e+05 1.140659e+05 1.258784e+05 1.012608e+05 1.206754e+05 1.244598e+05 1.273041e+05 9.744695e+04 1.048513e+05 1.216797e+05 1.216797e+05 1.243444e+05 9.854643e+04 9.646086e+04 1.021381e+05 1.021381e+05 1.021381e+05 1.038209e+05 1.141163e+05 1.141163e+05 1.239118e+05 1.239118e+05 1.219543e+05 1.219543e+05 1.158219e+05 9.980319e+04 9.886894e+04 1.179565e+05 1.179565e+05 1.179565e+05 1.175670e+05 1.097203e+05 1.097203e+05 1.180019e+05 1.180019e+05 1.143202e+05 1.143202e+05 1.138174e+05 9.643229e+04 9.643229e+04 9.643229e+04 9.525825e+04 1.127410e+05 1.110071e+05 1.110071e+05 1.007787e+05 1.032342e+05 9.707046e+04 9.802142e+04 9.955324e+04 9.955324e+04 1.113510e+05 1.193606e+05 1.059704e+05 1.062724e+05 1.112205e+05 1.046575e+05 1.046575e+05 1.149318e+05 1.144859e+05 1.199458e+05 1.016881e+05 1.016881e+05 1.000728e+05 1.176784e+05 1.176784e+05 1.152871e+05 1.014820e+05 1.003030e+05 1.003030e+05 1.003030e+05 9.884619e+04 1.137704e+05 9.950881e+04 1.028808e+05 1.090925e+05 9.950881e+04 1.041094e+05 1.009542e+05 1.009542e+05 1.078102e+05 1.072267e+05 1.035447e+05 1.029394e+05 1.073569e+05 1.073569e+05 1.073569e+05 1.030820e+05 1.082908e+05 1.082908e+05 1.082908e+05 1.064655e+05 1.064655e+05 1.053557e+05 1.037993e+05 1.071861e+05 1.047222e+05 1.042676e+05 1.063456e+05 1.050956e+05 1.057730e+05 1.070850e+05 1.070850e+05 1.036462e+05 1.036462e+05 1.044163e+05 1.072616e+05 1.072616e+05 1.072616e+05 1.075955e+05 1.075955e+05 1.062153e+05 1.062153e+05 1.062153e+05 1.254782e+05 1.263954e+05 1.263954e+05 1.263954e+05 1.021861e+05 1.021861e+05 1.266752e+05 1.266752e+05 1.266752e+05 1.277146e+05 1.277146e+05 1.041535e+05 1.029639e+05 1.248068e+05 1.248068e+05 1.239341e+05 1.021482e+05 1.283822e+05 1.276894e+05 1.279159e+05 1.009600e+05 1.025975e+05 1.029259e+05 1.082691e+05 1.082691e+05 1.085174e+05 1.402469e+05 1.165580e+05 1.165580e+05 1.165580e+05 1.146015e+05 1.219123e+05 1.219123e+05 1.219123e+05 1.224953e+05 1.218114e+05 1.218114e+05 1.350135e+05 1.181070e+05 1.181070e+05 1.181070e+05 1.179414e+05 1.102881e+05 1.390763e+05 1.390763e+05 1.390763e+05 1.216268e+05 1.335503e+05 1.335503e+05 1.302313e+05 1.302313e+05 1.302313e+05 1.199715e+05 1.199715e+05 1.199715e+05 1.230509e+05 1.201536e+05 1.201536e+05 1.204957e+05 1.246177e+05 1.162601e+05 1.205183e+05 1.193946e+05 1.187327e+05 1.154360e+05 1.140280e+05 1.173237e+05 1.129222e+05 1.113547e+05 1.127170e+05 1.127170e+05 1.108223e+05 1.108223e+05 1.108223e+05 1.080880e+05 1.369897e+05 1.239384e+05 1.239384e+05 1.202822e+05 1.185721e+05 1.157700e+05 1.157700e+05 1.328577e+05 1.328577e+05 1.287440e+05 1.287440e+05 1.248342e+05 1.229487e+05 1.173996e+05 1.140050e+05 1.109616e+05 1.109616e+05 1.084376e+05 1.092874e+05 1.367251e+05 1.367251e+05 1.152440e+05 1.114255e+05 1.114255e+05 1.129387e+05 1.115821e+05 1.105748e+05 1.094919e+05 1.094919e+05 1.094919e+05 1.096867e+05 1.096867e+05 1.091699e+05 1.089390e+05 1.089390e+05 1.089390e+05 1.111259e+05 1.111259e+05 1.029544e+05 1.085719e+05 1.085719e+05 1.087900e+05 1.084396e+05 1.084396e+05 1.034050e+05 1.045635e+05 1.034740e+05 1.082918e+05 1.082918e+05 1.082918e+05 1.080434e+05 1.091836e+05 1.059265e+05 1.081757e+05 1.275070e+05 1.075166e+05 1.069739e+05 1.078186e+05 1.077499e+05 1.288166e+05 1.317767e+05 1.317767e+05 1.337267e+05 1.337267e+05 1.358525e+05 1.358525e+05 1.358525e+05 1.374290e+05 1.380473e+05 1.380473e+05 1.380473e+05 1.414950e+05 1.081569e+05 1.085282e+05 1.085282e+05 1.085282e+05 1.089184e+05 1.094760e+05 1.098227e+05 1.149393e+05 1.093205e+05 1.099292e+05 1.102029e+05 1.100535e+05 1.107997e+05 1.105178e+05 1.097922e+05 1.086319e+05 1.092821e+05 1.087445e+05 1.087445e+05 1.083284e+05 1.083284e+05 1.093198e+05 1.087183e+05 1.081762e+05 1.080140e+05 1.292556e+05 1.308095e+05 1.371156e+05 1.430097e+05 1.452288e+05 1.452077e+05 1.451747e+05 1.451911e+05 1.451171e+05 1.450860e+05 1.450148e+05 1.449355e+05 1.448598e+05 1.447851e+05 1.446754e+05 1.059006e+05 1.059006e+05 1.070546e+05 1.070546e+05 1.073273e+05 1.077443e+05 1.080287e+05 1.080287e+05 1.080287e+05 1.080546e+05 1.076470e+05 1.076470e+05 1.069743e+05 1.069743e+05 1.069743e+05 1.107100e+05 1.107100e+05 1.107100e+05 1.110492e+05 1.110492e+05 1.067478e+05 1.067478e+05 1.067478e+05 1.071244e+05 1.059006e+05 1.058725e+05 1.058725e+05 1.079910e+05 1.089849e+05 1.089849e+05 1.440043e+05 1.440043e+05 1.440043e+05 1.446189e+05 1.446189e+05 1.069407e+05 1.075260e+05 1.075260e+05 1.442911e+05 1.442911e+05 1.439582e+05 1.339924e+05 1.339924e+05 1.339924e+05 1.276120e+05 1.276120e+05 1.276120e+05 1.259589e+05 1.259589e+05 1.084022e+05 1.407111e+05 1.407111e+05 1.407111e+05 1.403023e+05 1.447344e+05 1.447344e+05 1.447344e+05 1.445180e+05 1.440906e+05 1.426542e+05 1.426542e+05 1.426542e+05 1.447550e+05 1.440428e+05 1.440428e+05 1.440428e+05 1.442854e+05 1.307350e+05 1.324248e+05 1.307350e+05 1.307350e+05 1.117183e+05 1.117183e+05 1.056662e+05 1.348885e+05 1.348885e+05 1.447620e+05 1.447851e+05 1.446629e+05 1.446629e+05 1.442854e+05 1.429952e+05 1.422893e+05 1.440838e+05 1.437601e+05 1.430732e+05 1.430732e+05 1.431088e+05 1.425514e+05 1.432033e+05 1.431088e+05 1.426837e+05 1.415208e+05 1.415208e+05 1.417824e+05 1.417824e+05 1.421966e+05 1.412692e+05 1.411746e+05 1.405987e+05 1.405987e+05 1.399886e+05 1.405605e+05 1.390643e+05 1.373811e+05 1.373811e+05 1.324248e+05 1.286847e+05 1.286847e+05 1.270237e+05 1.270237e+05 1.256163e+05 1.245219e+05 1.209075e+05 1.096946e+05 1.056662e+05 1.056662e+05 1.087768e+05 1.087768e+05 1.087768e+05 1.086411e+05 1.074444e+05 1.090860e+05 1.090860e+05 1.090860e+05 1.090254e+05 1.101856e+05 1.101856e+05 1.101856e+05 1.100235e+05 1.097538e+05 1.136539e+05 1.136539e+05 1.136539e+05 1.142129e+05 1.182074e+05 1.182074e+05 1.182074e+05 1.179799e+05 1.171097e+05 1.145139e+05 1.145139e+05 1.139695e+05 1.231076e+05 1.231076e+05 1.231076e+05 1.238084e+05 1.238084e+05 1.216747e+05 1.216747e+05 1.216747e+05 1.111974e+05 1.111974e+05 1.213368e+05 1.213368e+05 1.213368e+05 1.206904e+05 1.206904e+05 1.304931e+05 1.304931e+05 1.304931e+05 1.265288e+05 1.265288e+05 1.265288e+05 1.188184e+05 1.188184e+05 1.188184e+05 1.099733e+05 1.261528e+05 1.254742e+05 1.210600e+05 1.202999e+05 1.302347e+05 1.271591e+05 1.271591e+05 1.176908e+05 1.176908e+05 1.207574e+05 1.195084e+05 1.243185e+05 1.243185e+05 1.243185e+05 1.303253e+05 1.348885e+05 1.210457e+05 1.161577e+05 1.161577e+05 1.161577e+05 1.237623e+05 1.194434e+05 1.163422e+05 1.146901e+05 1.130964e+05 1.175279e+05 1.131031e+05 1.126284e+05 1.123464e+05 1.123464e+05 1.080522e+05 1.354769e+05 1.354769e+05 1.258677e+05 1.156562e+05 1.156562e+05 1.237854e+05 1.385717e+05 1.139481e+05 1.139481e+05 1.115804e+05 1.115804e+05 1.115804e+05 1.221105e+05 1.274096e+05 1.118168e+05 1.135319e+05 1.117000e+05 1.107210e+05 1.106805e+05 1.106805e+05 1.106805e+05 1.097936e+05 1.097936e+05 1.102110e+05 1.100777e+05 1.100777e+05 1.094085e+05 1.093176e+05 1.084022e+05 1.089377e+05 1.089377e+05 1.079235e+05 1.082105e+05 1.267817e+05 1.341576e+05 1.341576e+05 1.376144e+05 1.376144e+05 1.312935e+05 1.075006e+05 1.166009e+05 1.253192e+05 1.278009e+05 1.283556e+05 1.302970e+05 1.302970e+05 1.325014e+05 1.325014e+05 1.325014e+05 1.343850e+05 1.358549e+05 1.369536e+05 1.383029e+05 1.383029e+05 1.383808e+05 1.419490e+05 1.117915e+05 1.130555e+05 1.296556e+05 1.391025e+05 1.137758e+05 1.146275e+05 1.114762e+05 1.106961e+05 1.120721e+05 1.108444e+05 1.094593e+05 1.128950e+05 1.096243e+05 1.096243e+05 1.092699e+05 1.091977e+05 1.084416e+05 1.084159e+05 1.084159e+05 1.082984e+05 1.086720e+05 1.087254e+05 1.283854e+05 1.316127e+05 1.352080e+05 1.395949e+05 1.352099e+05 1.365473e+05 1.320263e+05 1.389628e+05 1.364741e+05 1.081931e+05 1.070546e+05 1.452288e+05 1.452278e+05 1.452573e+05 1.451732e+05 1.450950e+05 1.450462e+05 1.449660e+05 1.449044e+05 1.448282e+05 1.447690e+05 1.446630e+05 1.445481e+05 1.443993e+05 1.442560e+05 1.440727e+05 1.439571e+05 1.438153e+05 1.436396e+05 1.434285e+05 1.432286e+05 1.430536e+05 1.427979e+05 1.426012e+05 1.423905e+05 1.421910e+05 1.420001e+05 1.417102e+05 1.414525e+05 1.411664e+05 1.408084e+05 1.404530e+05 1.402274e+05 1.398666e+05 1.396369e+05 1.393229e+05 1.389548e+05 1.386064e+05 1.383097e+05 1.378579e+05 1.374408e+05 1.370774e+05 1.366887e+05 1.363272e+05 1.358993e+05 1.355290e+05 1.351080e+05 1.346788e+05 1.342264e+05 1.337704e+05 1.333075e+05 1.328954e+05 1.324193e+05 1.319884e+05 1.314239e+05 1.309531e+05 1.304562e+05 1.298374e+05 1.294005e+05 1.288679e+05 1.282511e+05 1.278862e+05 1.274136e+05 1.267628e+05 1.262444e+05 1.257030e+05 1.251839e+05 1.245552e+05 1.240147e+05 1.234248e+05 1.229026e+05 1.222636e+05 1.216643e+05 1.210948e+05 1.201037e+05 1.198350e+05 1.192954e+05 1.187392e+05 1.181509e+05 1.175030e+05 1.168449e+05 1.162919e+05 1.156959e+05 1.150292e+05 1.144354e+05 1.138201e+05 1.131992e+05 1.124985e+05 1.118576e+05 1.112834e+05 1.106876e+05 1.100738e+05 1.093467e+05 1.087787e+05 1.080292e+05 1.074370e+05 1.067786e+05 1.060802e+05 1.054640e+05 1.048465e+05 1.042133e+05 1.036179e+05 1.029623e+05 1.023524e+05 1.016979e+05 1.010961e+05 1.003684e+05 9.972864e+04 9.907127e+04 9.843745e+04 9.779908e+04 9.722117e+04 9.651296e+04 9.592564e+04 9.529456e+04 9.472018e+04 9.411920e+04 9.343167e+04 9.284065e+04 9.226444e+04 9.171681e+04 9.103214e+04 9.046557e+04 8.977567e+04 8.977567e+04 1.036590e+05 1.036590e+05 1.067886e+05 1.070530e+05 1.073259e+05 1.077499e+05 1.080880e+05 1.080880e+05 1.081330e+05 1.082984e+05 1.084416e+05 1.084416e+05 1.088926e+05 1.088926e+05 1.094593e+05 1.097538e+05 1.098731e+05 1.102637e+05 1.106961e+05 1.117915e+05 1.117915e+05 1.130555e+05 1.130555e+05 1.137758e+05 1.152643e+05 1.156562e+05 1.166009e+05 1.170681e+05 1.184397e+05 1.193994e+05 1.202999e+05 1.217630e+05 1.222357e+05 1.238084e+05 1.254211e+05 1.266895e+05 1.278009e+05 1.278009e+05 1.288406e+05 1.310173e+05 1.310173e+05 1.332855e+05 1.339742e+05 1.339742e+05 1.354769e+05 1.369536e+05 1.369536e+05 1.383029e+05 1.391025e+05 1.403017e+05 1.403017e+05 1.410803e+05 1.422893e+05 1.429952e+05 1.441557e+05 1.445514e+05 1.034663e+05 1.127517e+05 1.127517e+05 1.127517e+05 1.133344e+05 1.096161e+05 1.096161e+05 1.096161e+05 1.103442e+05 1.103442e+05 1.142522e+05 1.142522e+05 1.142522e+05 1.144595e+05 1.140716e+05 1.021861e+05 1.107964e+05 1.107964e+05 1.102386e+05 1.129499e+05 1.129499e+05 1.129499e+05 1.125141e+05 1.121261e+05 1.265522e+05 1.265522e+05 1.265522e+05 1.259818e+05 1.056237e+05 1.056237e+05 1.056237e+05 1.052940e+05 1.049460e+05 1.049460e+05 1.121064e+05 1.121064e+05 1.096528e+05 1.092430e+05 1.034663e+05 1.034663e+05 1.073557e+05 1.073557e+05 1.073557e+05 1.071166e+05 1.066224e+05 1.066224e+05 1.069836e+05 1.108679e+05 1.108679e+05 1.108679e+05 1.109407e+05 1.102702e+05 1.118403e+05 1.117888e+05 1.069042e+05 1.069042e+05 1.069042e+05 1.060566e+05 9.927484e+04 9.707046e+04 9.522697e+04 9.707046e+04 1.231337e+05 1.231337e+05 1.231337e+05 1.277305e+05 1.277305e+05 1.277305e+05 1.266034e+05 9.237381e+04 9.157918e+04 9.237381e+04 9.237381e+04 1.208258e+05 1.208258e+05 1.208258e+05 1.208151e+05 1.314246e+05 1.314246e+05 1.314246e+05 1.310811e+05 1.362025e+05 1.362025e+05 1.362025e+05 1.352095e+05 1.352095e+05 9.553983e+04 9.553983e+04 9.553983e+04 9.515317e+04 1.009858e+05 1.009858e+05 1.009858e+05 1.001494e+05 1.001494e+05 1.410153e+05 1.410153e+05 1.410153e+05 1.414060e+05 1.134516e+05 1.134516e+05 1.134516e+05 1.135119e+05 1.135119e+05 8.939154e+04 8.979785e+04 1.368522e+05 1.368522e+05 1.368522e+05 1.365723e+05 1.396482e+05 1.396482e+05 1.396482e+05 1.401904e+05 1.401904e+05 1.180633e+05 1.180633e+05 1.180633e+05 1.178785e+05 1.382478e+05 1.382478e+05 1.382478e+05 1.378562e+05 9.529456e+04 1.263598e+05 1.263598e+05 1.263598e+05 1.205351e+05 1.205351e+05 1.205351e+05 1.200900e+05 1.148831e+05 1.148831e+05 1.148831e+05 1.146530e+05 1.054640e+05 1.026583e+05 1.026583e+05 1.026583e+05 1.023848e+05 1.108232e+05 1.108232e+05 1.108232e+05 1.109022e+05 1.109022e+05 8.979785e+04 8.979785e+04 8.939154e+04 1.362517e+05 1.362517e+05 1.362517e+05 1.373380e+05 1.373380e+05 1.134151e+05 1.140055e+05 1.140055e+05 1.308967e+05 1.308967e+05 1.308967e+05 1.320062e+05 1.320062e+05 1.295903e+05 1.295903e+05 1.295903e+05 1.299714e+05 9.596128e+04 9.504654e+04 9.596128e+04 9.596128e+04 9.646086e+04 1.102007e+05 1.102007e+05 1.102007e+05 1.109327e+05 1.120090e+05 1.131722e+05 1.131722e+05 1.049854e+05 1.049854e+05 1.034709e+05 1.034709e+05 1.147872e+05 1.147872e+05 1.147872e+05 1.163227e+05 1.163227e+05 1.042637e+05 1.042637e+05 1.042637e+05 1.042606e+05 1.036086e+05 1.085881e+05 1.070403e+05 1.212984e+05 1.212984e+05 1.212984e+05 1.208232e+05 1.254285e+05 1.254285e+05 1.254285e+05 1.247287e+05 1.155921e+05 1.155921e+05 1.155921e+05 1.295230e+05 1.295230e+05 1.295230e+05 1.050058e+05 1.050058e+05 1.050058e+05 1.334235e+05 1.334235e+05 1.334235e+05 9.598067e+04 9.598067e+04 9.598067e+04 9.593596e+04 9.525328e+04 1.056132e+05 1.056132e+05 1.056132e+05 9.729396e+04 9.729396e+04 9.743761e+04 1.178415e+05 1.178415e+05 1.178415e+05 1.185748e+05 1.080820e+05 1.080820e+05 1.080820e+05 1.079936e+05 1.041329e+05 1.041329e+05 1.397015e+05 1.397015e+05 1.397015e+05 1.390583e+05 9.224474e+04 9.224474e+04 9.224474e+04 9.226596e+04 9.890631e+04 9.890631e+04 9.890631e+04 9.906650e+04 1.363773e+05 1.363773e+05 1.363773e+05 1.221622e+05 1.221622e+05 1.221622e+05 1.223726e+05 1.094827e+05 1.094827e+05 1.094827e+05 1.095650e+05 1.090059e+05 1.090059e+05 1.090059e+05 1.088064e+05 1.146576e+05 1.146576e+05 1.146576e+05 1.151151e+05 