<?xml version="1.0"?>
 <VTKFile type="UnstructuredGrid" version="1.0" byte_order="LittleEndian" header_type="UInt64">
  <UnstructuredGrid>
    <FieldData>
     <DataArray type="Float64" Name="TimeValue" NumberOfTuples="1" format="ascii">
0.00027
     </DataArray>
    </FieldData>
   <Piece NumberOfPoints="3662" NumberOfCells="3444">
    <PointData>
     <DataArray type="Float64" Name="pointP" format="ascii">
8.614218e+05 8.604395e+05 8.618641e+05 8.599449e+05 8.588589e+05 8.601026e+05 8.589898e+05 8.577220e+05 8.563122e+05 8.552938e+05 8.495359e+05 8.444650e+05 8.366547e+05 8.306943e+05 8.255931e+05 8.213050e+05 8.157063e+05 8.119622e+05 8.072155e+05 8.020316e+05 7.988032e+05 7.930996e+05 7.875044e+05 7.816338e+05 7.772128e+05 7.771350e+05 7.662941e+05 7.635007e+05 7.566829e+05 7.557356e+05 7.510525e+05 7.477396e+05 7.446402e+05 7.385401e+05 7.346693e+05 7.272547e+05 7.211647e+05 7.122130e+05 7.008905e+05 6.941009e+05 6.881521e+05 6.789868e+05 6.715337e+05 6.632459e+05 6.588750e+05 6.521183e+05 6.405423e+05 6.297018e+05 6.264678e+05 6.141941e+05 6.058708e+05 5.955347e+05 5.841065e+05 5.724995e+05 5.612767e+05 5.496133e+05 5.390145e+05 5.327951e+05 5.214576e+05 5.128872e+05 5.047957e+05 4.983917e+05 4.876381e+05 4.736652e+05 4.628373e+05 4.554516e+05 4.439988e+05 4.352335e+05 4.243136e+05 4.157384e+05 4.052763e+05 3.953606e+05 3.844374e+05 3.765119e+05 3.673001e+05 3.584992e+05 3.484550e+05 3.383923e+05 3.264868e+05 3.160645e+05 3.078819e+05 2.987255e+05 2.879259e+05 2.799118e+05 2.708002e+05 2.626517e+05 2.518984e+05 2.421511e+05 2.333086e+05 2.249499e+05 2.152940e+05 2.056742e+05 1.975882e+05 1.868187e+05 1.790003e+05 1.699619e+05 1.598690e+05 1.519716e+05 1.440276e+05 1.358760e+05 1.280178e+05 1.200207e+05 1.124060e+05 1.042201e+05 9.720592e+04 8.857403e+04 8.123787e+04 7.450536e+04 6.752844e+04 6.174283e+04 5.621662e+04 4.917913e+04 4.340430e+04 3.764315e+04 3.159150e+04 2.735101e+04 2.089073e+04 1.527329e+04 1.097270e+04 6.586624e+03 1.872838e+03 -3.802306e+03 -8.332669e+03 -8.332669e+03 1.216278e+05 1.460237e+05 1.575986e+05 1.588453e+05 1.619260e+05 1.666242e+05 1.704147e+05 1.704147e+05 1.709722e+05 1.727397e+05 1.742080e+05 1.742080e+05 1.787986e+05 1.787986e+05 1.843696e+05 1.872269e+05 1.883452e+05 1.922876e+05 1.964840e+05 2.071204e+05 2.071204e+05 2.193018e+05 2.193018e+05 2.262543e+05 2.411871e+05 2.447477e+05 2.542638e+05 2.590145e+05 2.726985e+05 2.823680e+05 2.916728e+05 3.067620e+05 3.113146e+05 3.275065e+05 3.443318e+05 3.573787e+05 3.692207e+05 3.692207e+05 3.807187e+05 4.045632e+05 4.045632e+05 4.306185e+05 4.396978e+05 4.396978e+05 4.603841e+05 4.827779e+05 4.827779e+05 5.078887e+05 5.244885e+05 5.562070e+05 5.562070e+05 5.816034e+05 6.381444e+05 6.800431e+05 7.617824e+05 7.981253e+05 1.196362e+05 2.163136e+05 2.163136e+05 2.163136e+05 2.218578e+05 1.851341e+05 1.851341e+05 1.851341e+05 1.926123e+05 1.926123e+05 2.309761e+05 2.309761e+05 2.309761e+05 2.330210e+05 2.293738e+05 1.061167e+05 1.970859e+05 1.970859e+05 1.912700e+05 2.183040e+05 2.183040e+05 2.183040e+05 2.139769e+05 2.102647e+05 4.125801e+05 4.125801e+05 4.125801e+05 4.005357e+05 1.427056e+05 1.427056e+05 1.427056e+05 1.390530e+05 1.351592e+05 1.351592e+05 2.100647e+05 2.100647e+05 1.851087e+05 1.812293e+05 1.196362e+05 1.196362e+05 1.621470e+05 1.621470e+05 1.621470e+05 1.595780e+05 1.539220e+05 1.539220e+05 1.580569e+05 1.977205e+05 1.977205e+05 1.977205e+05 1.983182e+05 1.913651e+05 2.074935e+05 2.069099e+05 1.569982e+05 1.569982e+05 1.569982e+05 1.483828e+05 7.884532e+04 5.770055e+04 4.001541e+04 5.770055e+04 3.226833e+05 3.226833e+05 3.226833e+05 3.748298e+05 3.748298e+05 3.748298e+05 3.618955e+05 1.358042e+04 5.606112e+03 1.358042e+04 1.358042e+04 3.090542e+05 3.090542e+05 3.090542e+05 3.102200e+05 4.612220e+05 4.612220e+05 4.612220e+05 4.493353e+05 5.395594e+05 5.395594e+05 5.395594e+05 5.126126e+05 5.126126e+05 4.673980e+04 4.673980e+04 4.673980e+04 4.296117e+04 1.009796e+05 1.009796e+05 1.009796e+05 9.259905e+04 9.259905e+04 6.148541e+05 6.148541e+05 6.148541e+05 6.291985e+05 2.399233e+05 2.399233e+05 2.399233e+05 2.378699e+05 2.378699e+05 -1.397236e+04 -1.033564e+04 6.241747e+05 6.241747e+05 6.241747e+05 6.040119e+05 6.797801e+05 6.797801e+05 6.797801e+05 7.093552e+05 7.093552e+05 3.192596e+05 3.192596e+05 3.192596e+05 3.116067e+05 6.689621e+05 6.689621e+05 6.689621e+05 6.426542e+05 3.764315e+04 4.548761e+05 4.548761e+05 4.548761e+05 3.629544e+05 3.629544e+05 3.629544e+05 3.625531e+05 2.751548e+05 2.751548e+05 2.751548e+05 2.777462e+05 1.519716e+05 1.173261e+05 1.173261e+05 1.173261e+05 1.141184e+05 2.169913e+05 2.169913e+05 2.169913e+05 2.141245e+05 2.141245e+05 -1.033564e+04 -1.033564e+04 -1.397236e+04 5.215539e+05 5.215539e+05 5.215539e+05 5.574119e+05 5.574119e+05 2.354597e+05 2.408629e+05 2.408629e+05 4.314271e+05 4.314271e+05 4.314271e+05 4.554730e+05 4.554730e+05 4.027768e+05 4.027768e+05 4.027768e+05 4.093401e+05 4.887204e+04 3.974125e+04 4.887204e+04 4.887204e+04 5.338472e+04 1.907660e+05 1.907660e+05 1.907660e+05 1.986745e+05 2.094973e+05 2.211276e+05 2.211276e+05 1.377091e+05 1.377091e+05 1.220052e+05 1.220052e+05 2.367475e+05 2.367475e+05 2.367475e+05 2.521436e+05 2.521436e+05 1.286156e+05 1.286156e+05 1.286156e+05 1.281325e+05 1.215972e+05 1.744154e+05 1.583711e+05 3.044993e+05 3.044993e+05 3.044993e+05 2.993191e+05 3.504179e+05 3.504179e+05 3.504179e+05 3.429528e+05 2.474830e+05 2.474830e+05 2.474830e+05 3.942514e+05 3.942514e+05 3.942514e+05 1.406530e+05 1.406530e+05 1.406530e+05 4.450072e+05 4.450072e+05 4.450072e+05 5.061887e+04 5.061887e+04 5.061887e+04 4.961304e+04 4.303419e+04 1.479827e+05 1.479827e+05 1.479827e+05 6.342384e+04 6.342384e+04 6.466717e+04 2.789642e+05 2.789642e+05 2.789642e+05 2.872336e+05 1.744556e+05 1.744556e+05 1.744556e+05 1.736198e+05 1.331321e+05 1.331321e+05 5.540638e+05 5.540638e+05 5.540638e+05 5.358932e+05 1.350852e+04 1.350852e+04 1.350852e+04 1.373827e+04 8.012470e+04 8.012470e+04 8.012470e+04 8.176697e+04 5.157419e+05 5.157419e+05 5.157419e+05 3.398439e+05 3.398439e+05 3.398439e+05 3.400660e+05 1.935361e+05 1.935361e+05 1.935361e+05 1.939778e+05 1.917639e+05 1.917639e+05 1.917639e+05 1.872565e+05 2.562162e+05 2.562162e+05 2.562162e+05 2.611237e+05 7.123197e+05 7.123197e+05 7.123197e+05 7.187454e+05 7.187454e+05 7.187454e+05 7.042674e+05 7.079048e+05 7.079048e+05 7.079048e+05 6.872960e+05 6.714129e+05 6.714129e+05 6.492623e+05 3.885074e+05 3.885074e+05 3.799273e+05 7.905343e+04 7.905343e+04 8.164531e+04 2.365043e+05 2.365043e+05 2.365043e+05 2.382839e+05 3.060746e+05 3.060746e+05 3.060746e+05 7.246419e+05 7.246419e+05 7.206850e+05 3.452004e+05 3.452004e+05 3.466628e+05 2.461102e+05 6.828005e+05 6.814487e+05 1.071717e+05 1.071717e+05 1.015168e+05 7.588024e+05 7.588024e+05 7.588024e+05 7.903062e+05 3.047389e+05 3.047389e+05 6.110617e+05 6.110617e+05 6.110617e+05 7.562112e+05 7.562112e+05 7.562112e+05 7.471762e+05 7.471762e+05 6.819361e+05 6.819361e+05 6.819361e+05 7.136132e+05 6.660694e+05 6.660694e+05 6.660694e+05 6.345412e+05 6.345412e+05 1.390104e+05 1.390104e+05 1.390104e+05 1.328498e+05 1.328498e+05 5.515635e+05 5.515635e+05 5.749079e+05 5.749079e+05 6.634360e+05 6.634360e+05 6.634360e+05 5.654794e+05 5.654794e+05 5.654794e+05 6.010869e+05 1.116838e+05 1.116838e+05 1.116838e+05 1.107027e+05 1.107027e+05 1.937212e+03 1.937212e+03 1.937212e+03 9.938299e+03 9.938299e+03 2.057615e+05 2.057615e+05 2.057615e+05 2.203027e+05 2.203027e+05 3.410122e+05 3.410122e+05 3.410122e+05 3.460352e+05 3.460352e+05 3.998091e+05 3.998091e+05 3.998091e+05 4.231149e+05 3.992624e+05 3.992624e+05 4.447150e+05 4.447150e+05 4.447150e+05 4.288264e+05 4.288264e+05 7.968381e+04 7.968381e+04 7.968381e+04 8.550979e+04 8.550979e+04 1.695274e+05 1.695274e+05 1.695274e+05 1.870198e+05 1.870198e+05 1.730705e+05 1.730705e+05 1.561123e+05 1.561123e+05 2.687670e+05 2.687670e+05 2.822342e+05 2.822342e+05 1.754898e+05 1.576983e+05 1.576983e+05 2.528176e+05 2.528176e+05 2.528176e+05 2.562707e+05 2.562707e+05 2.269202e+05 2.269202e+05 1.400122e+05 1.400122e+05 1.400122e+05 1.431984e+05 2.063057e+05 9.466141e+04 8.829450e+04 1.675852e+05 1.675852e+05 1.675852e+05 1.698440e+05 1.698440e+05 9.013029e+04 9.013029e+04 8.197122e+04 7.856911e+04 8.264233e+04 4.277176e+05 4.277176e+05 4.277176e+05 4.167409e+05 4.668778e+05 4.668778e+05 4.570740e+05 2.067601e+05 2.067601e+05 2.067601e+05 2.041758e+04 2.041758e+04 2.041758e+04 1.720871e+04 1.625283e+04 6.848411e+05 6.848411e+05 6.848411e+05 2.879285e+05 8.529643e+04 3.156085e+04 3.156085e+04 6.848062e+05 6.848062e+05 4.439988e+05 4.230988e+05 4.230988e+05 4.230988e+05 4.928555e+05 4.928555e+05 4.928555e+05 4.956813e+05 8.618641e+05 8.178817e+05 8.178817e+05 7.993178e+05 7.993178e+05 7.993178e+05 8.190700e+05 1.454509e+05 1.454509e+05 1.409966e+05 1.699619e+05 8.354233e+05 8.354233e+05 7.252323e+05 7.252323e+05 1.996663e+05 1.996663e+05 6.083701e+04 6.083701e+04 6.083701e+04 8.000266e+05 8.000266e+05 8.094637e+05 -1.059347e+04 -1.059347e+04 -6.534267e+03 7.006386e+05 7.838544e+05 7.814220e+05 7.814220e+05 7.775571e+05 4.017815e+05 4.017815e+05 4.017815e+05 4.174456e+05 5.955347e+05 5.851348e+05 8.599449e+05 8.004008e+05 6.445941e+05 6.445941e+05 5.826840e+05 5.826840e+05 5.826840e+05 6.011808e+05 1.877197e+05 1.877197e+05 1.789477e+05 1.789477e+05 3.582315e+05 7.644551e+05 7.644551e+05 7.352768e+05 4.659755e+05 4.659755e+05 4.659755e+05 4.917913e+04 8.577220e+05 7.802869e+05 5.229973e+05 5.229973e+05 5.229973e+05 5.151421e+05 5.086190e+04 5.086190e+04 5.001534e+04 5.048071e+05 5.048071e+05 5.203749e+05 9.853480e+04 9.853480e+04 2.214622e+05 2.214622e+05 8.297217e+05 7.008905e+05 6.767507e+05 4.963820e+05 7.750666e+05 7.750666e+05 5.967915e+05 7.237090e+04 6.893921e+04 6.893921e+04 1.619041e+05 1.619041e+05 1.561267e+05 1.561267e+05 7.406464e+05 7.406464e+05 4.459201e+05 7.784122e+05 3.971531e+05 3.971531e+05 3.932141e+05 5.355160e+05 5.355160e+05 5.355160e+05 8.057097e+05 8.057097e+05 2.714540e+05 3.142048e+04 3.142048e+04 5.641827e+05 5.499494e+05 6.378226e+05 3.455913e+05 -3.802306e+03 1.872838e+03 7.479568e+05 4.718202e+05 7.373768e+03 7.373768e+03 7.373768e+03 1.424008e+03 7.039825e+05 -7.074504e+03 7.619510e+04 7.619510e+04 6.297018e+05 5.656243e+05 1.246343e+05 1.246343e+05 7.342770e+05 7.342770e+05 2.322818e+04 2.322818e+04 1.637718e+05 4.307443e+05 4.307443e+05 1.037117e+05 1.630384e+05 2.647718e+05 2.697809e+05 4.300409e+05 4.300409e+05 3.984637e+05 3.984637e+05 8.944765e+04 2.597880e+05 7.824777e+05 5.282718e+03 2.554417e+05 5.771315e+05 6.641338e+05 1.344827e+03 1.164461e+05 1.237702e+05 1.552851e+05 5.527076e+05 5.347643e+05 7.879404e+05 7.879404e+05 4.282800e+05 3.999029e+05 6.626897e+05 1.378355e+05 6.475513e+05 6.475513e+05 5.834749e+05 5.834749e+05 5.834749e+05 2.270730e+05 4.027236e+05 6.125791e+04 6.667104e+05 6.680495e+05 6.535303e+05 6.535303e+05 6.535303e+05 5.000094e+05 5.000094e+05 5.000094e+05 5.218703e+05 7.826108e+05 3.929623e+05 3.840949e+05 2.385550e+05 2.385550e+05 2.385550e+05 5.549408e+05 5.549408e+05 5.549408e+05 5.901462e+05 4.750553e+05 4.750553e+05 4.838382e+05 3.597365e+05 3.457447e+05 8.976330e+04 9.309796e+04 7.361720e+04 7.361720e+04 7.075427e+04 3.070846e+04 3.070846e+04 2.859894e+04 2.859894e+04 1.432927e+05 7.483628e+05 2.082284e+05 7.609752e+05 7.298625e+05 7.326154e+05 7.326154e+05 7.027039e+05 7.027039e+05 6.212747e+05 6.280232e+05 3.224469e+05 6.722726e+05 6.722726e+05 5.634857e+05 5.634857e+05 6.457193e+05 2.828046e+05 2.828046e+05 2.828046e+05 6.346503e+05 2.829383e+05 4.195490e+04 4.195490e+04 4.195490e+04 4.478143e+04 4.478143e+04 4.986706e+05 4.918682e+05 7.086705e+05 7.086705e+05 7.457379e+05 1.706670e+04 2.085116e+04 4.604580e+05 4.604580e+05 4.023015e+05 5.116336e+05 6.764499e+05 5.826041e+04 5.826041e+04 5.826041e+04 6.581664e+04 7.299202e+05 7.299202e+05 7.070367e+05 7.257940e+05 6.784106e+05 6.784106e+05 1.646847e+05 1.646847e+05 1.646847e+05 1.835539e+05 8.034910e+04 1.831165e+05 1.750505e+05 1.750505e+05 3.717311e+05 3.099866e+05 3.099866e+05 3.210152e+05 5.661329e+05 5.414549e+05 5.414549e+05 6.615904e+05 6.615904e+05 -9.996410e+03 3.573505e+05 3.573505e+05 2.278834e+05 2.141752e+05 2.141752e+05 2.966996e+05 2.942477e+05 3.800734e+05 6.296008e+05 7.637968e+04 7.637968e+04 7.637968e+04 1.259485e+05 6.599130e+05 6.423231e+05 2.681107e+05 2.681107e+05 6.059613e+05 6.059613e+05 6.059613e+05 4.540768e+05 4.540768e+05 4.540768e+05 3.902904e+05 1.514112e+05 4.430941e+05 4.430941e+05 4.430941e+05 2.508829e+04 7.030035e+05 1.296314e+05 1.411173e+05 3.643593e+05 3.512547e+05 3.512547e+05 4.364445e+05 3.288398e+05 6.629650e+05 6.547378e+05 6.547378e+05 3.079037e+05 6.170346e+05 6.170346e+05 6.281065e+05 6.200725e+05 6.225260e+05 5.969297e+05 5.969297e+05 6.138598e+05 4.215619e+05 4.215619e+05 4.211762e+05 4.211762e+05 5.858027e+05 5.858027e+05 5.560088e+05 5.560088e+05 2.839750e+05 6.666827e+05 6.267571e+05 3.316982e+05 3.316982e+05 5.383560e+05 1.951554e+03 5.606064e+05 5.664934e+05 5.165962e+05 5.165962e+05 2.299563e+05 8.464169e+04 4.708796e+05 5.906033e+05 5.889977e+05 5.889977e+05 7.200358e+04 4.570798e+05 4.570798e+05 4.818274e+05 2.685970e+05 2.685970e+05 2.685970e+05 1.889760e+05 3.977406e+05 4.984971e+04 4.984971e+04 5.174215e+04 5.228670e+05 5.228670e+05 4.431889e+05 5.986128e+05 5.986128e+05 5.986128e+05 3.580977e+05 6.241495e+05 3.842997e+05 4.673525e+05 4.917159e+05 3.152418e+05 3.034707e+05 3.034707e+05 1.611266e+05 1.548529e+05 1.548529e+05 3.309475e+04 2.767675e+04 1.454797e+05 1.378340e+05 1.378340e+05 5.860000e+05 5.860000e+05 5.860000e+05 5.753474e+05 5.480651e+05 5.480651e+05 1.992181e+05 6.218464e+05 4.870615e+05 3.284064e+05 3.284064e+05 -7.696654e+03 -7.696654e+03 1.049679e+05 6.339483e+05 6.339483e+05 2.193078e+05 5.278013e+05 5.031286e+05 5.031286e+05 3.643501e+05 3.643501e+05 4.784786e+05 4.784786e+05 3.111684e+05 2.901086e+05 1.200879e+05 4.548783e+05 5.922416e+05 5.922416e+05 5.500317e+05 4.186766e+05 4.186766e+05 3.943926e+05 3.943926e+05 -9.183553e+03 2.873607e+05 1.655933e+05 1.732080e+05 3.324677e+05 3.232815e+05 1.025978e+05 3.855983e+05 3.855983e+05 3.855983e+05 5.622023e+05 5.622023e+05 5.870608e+05 1.167351e+05 1.167351e+05 1.167351e+05 7.169731e+04 7.169731e+04 4.849685e+05 4.849685e+05 5.010580e+05 5.714954e+05 5.580195e+05 2.610978e+05 5.190410e+05 5.190410e+05 5.069383e+05 3.122786e+05 5.369675e+05 5.369675e+05 3.746571e+05 1.539083e+05 1.539083e+05 1.539083e+05 1.401876e+05 4.303787e+05 7.375793e+03 1.984132e+04 3.369241e+04 5.471435e+04 4.172201e+05 4.169864e+05 1.911815e+05 5.923640e+05 5.256026e+05 5.256026e+05 5.256026e+05 5.335463e+05 1.793051e+05 5.521694e+05 4.931608e+05 4.939346e+05 3.648941e+05 3.648941e+05 3.648941e+05 2.469991e+05 2.469991e+05 2.469991e+05 2.747939e+05 2.747939e+05 5.068764e+05 5.022229e+05 5.022229e+05 5.022229e+05 2.703078e+05 4.462469e+05 4.462469e+05 4.462469e+05 3.001550e+05 3.783405e+05 3.783405e+05 3.783405e+05 9.827975e+04 9.827975e+04 9.827975e+04 4.768654e+04 1.656058e+05 4.835006e+05 4.835006e+05 4.475379e+05 5.405793e+05 2.173928e+05 1.991297e+05 1.991297e+05 1.991297e+05 3.262704e+05 4.725262e+05 4.674828e+05 1.109027e+05 1.014520e+05 2.989178e+05 1.723455e+04 4.824787e+05 4.824787e+05 5.098651e+05 5.162668e+05 4.158929e+05 2.790919e+05 4.882264e+05 1.932605e+05 1.932605e+05 2.622929e+05 3.110735e+05 2.396436e+05 2.396436e+05 2.345108e+05 2.181064e+05 8.006450e+04 8.006450e+04 3.592228e+05 3.592228e+05 3.693817e+05 3.974455e+05 4.702238e+05 4.613240e+05 2.809553e+05 2.931673e+05 4.111290e+05 5.220207e+05 5.034973e+05 9.349934e+04 3.777125e+04 3.777125e+04 3.777125e+04 4.670124e+05 4.670124e+05 3.383622e+05 3.383622e+05 3.282141e+05 4.462401e+05 3.997340e+05 3.830596e+05 3.830596e+05 1.512427e+05 1.512427e+05 1.636163e+05 1.259913e+05 1.259913e+05 2.513606e+05 1.187946e+05 1.065508e+05 2.030411e+05 1.759844e+05 2.116691e+05 2.277072e+05 3.905099e+05 3.373873e+05 3.373873e+05 3.373873e+05 3.622249e+05 4.478654e+05 4.804030e+05 2.742308e+05 4.403933e+05 3.284625e+05 3.284625e+05 3.453455e+05 3.013506e+05 3.013506e+05 2.900893e+05 2.900893e+05 2.259194e+05 2.324156e+05 4.285678e+04 4.981216e+04 2.784197e+05 1.414951e+05 3.182031e+05 3.182031e+05 2.481161e+05 2.481161e+05 2.481161e+05 2.347420e+05 4.319446e+05 4.184249e+05 2.582921e+05 9.700903e+04 2.034034e+05 3.579147e+05 2.712093e+05 2.712093e+05 3.191372e+05 3.191372e+05 1.221460e+05 1.221460e+05 2.987191e+05 4.285060e+05 3.930180e+05 3.930180e+05 3.761875e+05 6.045829e+04 3.161139e+05 4.087158e+05 2.090660e+05 2.090660e+05 1.974468e+05 2.494854e+05 2.599555e+05 3.776877e+05 3.776877e+05 2.111434e+05 2.111434e+05 1.433507e+05 1.257118e+05 1.257118e+05 2.320270e+05 3.541746e+05 1.020744e+05 3.001218e+05 3.389221e+05 3.680976e+05 6.362744e+04 1.378381e+05 3.095278e+05 3.095278e+05 3.363536e+05 7.442076e+04 5.338472e+04 1.104128e+05 1.104128e+05 1.104128e+05 1.272971e+05 2.319668e+05 2.319668e+05 3.304557e+05 3.304557e+05 3.100465e+05 3.100465e+05 2.493775e+05 8.663218e+04 7.726132e+04 2.700807e+05 2.700807e+05 2.700807e+05 2.665182e+05 1.873314e+05 1.873314e+05 2.702658e+05 2.702658e+05 2.337119e+05 2.337119e+05 2.283296e+05 5.251283e+04 5.251283e+04 5.251283e+04 4.062597e+04 2.174165e+05 1.999323e+05 1.999323e+05 9.647740e+04 1.207713e+05 5.770055e+04 6.794992e+04 8.334676e+04 8.334676e+04 2.041180e+05 2.838021e+05 1.482175e+05 1.514057e+05 2.018484e+05 1.351911e+05 1.351911e+05 2.389434e+05 2.346002e+05 2.898961e+05 1.044106e+05 1.044106e+05 8.902358e+04 2.657132e+05 2.657132e+05 2.421719e+05 1.017440e+05 8.934796e+04 8.934796e+04 8.934796e+04 7.511679e+04 2.270291e+05 8.076734e+04 1.158088e+05 1.793184e+05 8.076734e+04 1.275454e+05 9.469500e+04 9.469500e+04 1.661925e+05 1.599598e+05 1.215196e+05 1.155911e+05 1.615312e+05 1.615312e+05 1.615312e+05 1.163591e+05 1.713032e+05 1.713032e+05 1.713032e+05 1.520899e+05 1.520899e+05 1.396782e+05 1.234608e+05 1.598503e+05 1.326610e+05 1.281754e+05 1.503804e+05 1.370827e+05 1.444757e+05 1.586154e+05 1.586154e+05 1.212717e+05 1.212717e+05 1.296495e+05 1.608326e+05 1.608326e+05 1.608326e+05 1.646454e+05 1.646454e+05 1.494836e+05 1.494836e+05 1.494836e+05 3.448274e+05 3.545041e+05 3.545041e+05 3.545041e+05 1.061167e+05 1.061167e+05 3.585657e+05 3.585657e+05 3.585657e+05 3.690783e+05 3.690783e+05 1.263626e+05 1.140708e+05 3.386120e+05 3.386120e+05 3.295173e+05 1.052751e+05 3.761624e+05 3.682507e+05 3.706992e+05 9.466141e+04 1.102625e+05 1.136007e+05 1.717895e+05 1.717895e+05 1.742638e+05 5.613120e+05 2.540322e+05 2.540322e+05 2.540322e+05 2.348934e+05 3.082587e+05 3.082587e+05 3.082587e+05 3.143777e+05 3.075815e+05 3.075815e+05 4.538313e+05 2.695231e+05 2.695231e+05 2.695231e+05 2.676523e+05 1.924242e+05 5.252191e+05 5.252191e+05 5.252191e+05 3.051943e+05 4.342448e+05 4.342448e+05 3.964954e+05 3.964954e+05 3.964954e+05 2.885384e+05 2.885384e+05 2.885384e+05 3.200718e+05 2.906691e+05 2.906691e+05 2.948604e+05 3.376118e+05 2.510760e+05 2.943983e+05 2.824506e+05 2.772186e+05 2.428724e+05 2.291400e+05 2.625708e+05 2.183120e+05 2.025534e+05 2.161405e+05 2.161405e+05 1.975056e+05 1.975056e+05 1.975056e+05 1.704147e+05 4.838540e+05 3.290615e+05 3.290615e+05 2.915479e+05 2.740251e+05 2.459544e+05 2.459544e+05 4.290667e+05 4.290667e+05 3.810513e+05 3.810513e+05 3.382374e+05 3.189162e+05 2.623164e+05 2.283409e+05 1.989795e+05 1.989795e+05 1.730905e+05 1.820226e+05 4.852954e+05 4.852954e+05 2.406677e+05 2.034537e+05 2.034537e+05 2.180535e+05 2.049857e+05 1.950280e+05 1.844104e+05 1.844104e+05 1.844104e+05 1.863740e+05 1.863740e+05 1.810738e+05 1.789667e+05 1.789667e+05 1.789667e+05 2.005889e+05 2.005889e+05 1.140811e+05 1.749986e+05 1.749986e+05 1.771073e+05 1.738986e+05 1.738986e+05 1.186836e+05 1.307444e+05 1.191179e+05 1.724659e+05 1.724659e+05 1.724659e+05 1.693513e+05 1.814267e+05 1.461803e+05 1.709455e+05 3.681226e+05 1.640630e+05 1.579494e+05 1.672616e+05 1.666242e+05 3.803712e+05 4.135576e+05 4.135576e+05 4.385714e+05 4.385714e+05 4.671044e+05 4.671044e+05 4.671044e+05 4.913283e+05 5.064634e+05 5.064634e+05 5.064634e+05 6.041862e+05 1.712015e+05 1.750507e+05 1.750507e+05 1.750507e+05 1.789423e+05 1.845159e+05 1.879612e+05 2.377524e+05 1.829297e+05 1.889201e+05 1.915884e+05 1.900804e+05 1.973510e+05 1.946322e+05 1.875302e+05 1.760679e+05 1.826024e+05 1.771682e+05 1.771682e+05 1.729772e+05 1.729772e+05 1.829166e+05 1.768531e+05 1.712221e+05 1.694938e+05 3.873715e+05 4.051963e+05 4.892909e+05 6.820138e+05 8.614218e+05 8.614882e+05 8.619287e+05 8.634302e+05 8.607671e+05 8.591260e+05 8.571748e+05 8.537386e+05 8.516977e+05 8.499031e+05 8.436006e+05 1.468911e+05 1.468911e+05 1.594855e+05 1.594855e+05 1.624867e+05 1.669173e+05 1.698800e+05 1.698800e+05 1.698800e+05 1.701866e+05 1.657609e+05 1.657609e+05 1.585957e+05 1.585957e+05 1.585957e+05 1.966942e+05 1.966942e+05 1.966942e+05 1.999669e+05 1.999669e+05 1.560232e+05 1.560232e+05 1.560232e+05 1.601042e+05 1.468911e+05 1.464432e+05 1.464432e+05 1.694631e+05 1.789059e+05 1.789059e+05 7.556762e+05 7.556762e+05 7.556762e+05 8.051454e+05 8.051454e+05 1.580213e+05 1.642437e+05 1.642437e+05 7.861856e+05 7.861856e+05 7.584734e+05 4.403832e+05 4.403832e+05 4.403832e+05 3.715788e+05 3.715788e+05 3.715788e+05 3.538538e+05 3.538538e+05 1.733649e+05 5.707908e+05 5.707908e+05 5.707908e+05 5.594078e+05 8.146240e+05 8.146240e+05 8.146240e+05 7.970016e+05 7.614116e+05 6.573131e+05 6.573131e+05 6.573131e+05 8.137693e+05 7.725110e+05 7.725110e+05 7.725110e+05 8.013726e+05 4.065684e+05 4.271640e+05 4.065684e+05 4.065684e+05 2.067112e+05 2.067112e+05 1.441652e+05 4.607557e+05 4.607557e+05 8.287000e+05 8.499031e+05 8.043330e+05 8.043330e+05 8.013726e+05 6.800431e+05 6.381444e+05 7.587405e+05 7.286062e+05 6.946974e+05 6.946974e+05 7.033520e+05 6.621043e+05 6.969695e+05 7.033520e+05 6.679851e+05 6.115389e+05 6.115389e+05 6.254219e+05 6.254219e+05 6.499976e+05 6.093696e+05 5.920363e+05 5.772433e+05 5.772433e+05 5.589399e+05 5.839414e+05 5.364362e+05 5.010886e+05 5.010886e+05 4.271640e+05 3.818141e+05 3.818141e+05 3.633687e+05 3.633687e+05 3.492626e+05 3.373359e+05 2.991442e+05 1.858568e+05 1.441652e+05 1.441652e+05 1.776148e+05 1.776148e+05 1.776148e+05 1.762124e+05 1.636059e+05 1.806589e+05 1.806589e+05 1.806589e+05 1.799025e+05 1.914944e+05 1.914944e+05 1.914944e+05 1.899270e+05 1.872269e+05 2.256275e+05 2.256275e+05 2.256275e+05 2.310711e+05 2.711830e+05 2.711830e+05 2.711830e+05 2.688199e+05 2.600748e+05 2.339658e+05 2.339658e+05 2.284569e+05 3.206527e+05 3.206527e+05 3.206527e+05 3.275065e+05 3.275065e+05 3.056996e+05 3.056996e+05 3.056996e+05 2.015826e+05 2.015826e+05 3.027063e+05 3.027063e+05 3.027063e+05 2.963594e+05 2.963594e+05 3.999047e+05 3.999047e+05 3.999047e+05 3.559880e+05 3.559880e+05 3.559880e+05 2.766434e+05 2.766434e+05 2.766434e+05 1.890434e+05 3.520830e+05 3.450188e+05 2.995341e+05 2.916728e+05 3.965584e+05 3.630131e+05 3.630131e+05 2.652537e+05 2.652537e+05 2.966662e+05 2.841825e+05 3.339576e+05 3.339576e+05 3.339576e+05 4.006098e+05 4.607557e+05 3.001328e+05 2.502387e+05 2.502387e+05 2.502387e+05 3.286840e+05 2.838893e+05 2.524380e+05 2.358937e+05 2.200816e+05 2.645177e+05 2.201540e+05 2.155467e+05 2.127688e+05 2.127688e+05 1.701855e+05 4.603841e+05 4.603841e+05 3.493072e+05 2.447477e+05 2.447477e+05 3.275947e+05 5.228127e+05 2.281175e+05 2.281175e+05 2.052253e+05 2.052253e+05 2.052253e+05 3.108224e+05 3.660207e+05 2.074290e+05 2.244072e+05 2.064216e+05 1.967880e+05 1.963488e+05 1.963488e+05 1.963488e+05 1.877636e+05 1.877636e+05 1.915853e+05 1.904396e+05 1.904396e+05 1.837128e+05 1.825195e+05 1.733649e+05 1.792045e+05 1.792045e+05 1.685920e+05 1.717942e+05 3.598360e+05 4.463306e+05 4.463306e+05 4.989354e+05 4.989354e+05 4.092907e+05 1.643334e+05 2.542638e+05 3.432198e+05 3.692207e+05 3.753294e+05 3.966372e+05 3.966372e+05 4.223055e+05 4.223055e+05 4.223055e+05 4.459800e+05 4.659837e+05 4.827779e+05 5.078887e+05 5.078887e+05 5.098620e+05 6.189756e+05 2.071204e+05 2.193018e+05 3.895514e+05 5.244885e+05 2.262543e+05 2.348829e+05 2.041219e+05 1.964840e+05 2.098131e+05 1.979345e+05 1.843696e+05 2.180477e+05 1.860007e+05 1.860007e+05 1.824574e+05 1.818164e+05 1.742080e+05 1.739604e+05 1.739604e+05 1.727397e+05 1.763458e+05 1.770178e+05 3.772412e+05 4.148138e+05 4.642572e+05 5.455259e+05 4.585881e+05 4.823422e+05 4.161682e+05 5.247817e+05 4.783744e+05 1.716306e+05 1.594855e+05 8.614218e+05 8.604395e+05 8.618641e+05 8.599449e+05 8.588589e+05 8.601026e+05 8.589898e+05 8.577220e+05 8.563122e+05 8.552938e+05 8.495359e+05 8.444650e+05 8.366547e+05 8.306943e+05 8.255931e+05 8.213050e+05 8.157063e+05 8.119622e+05 8.072155e+05 8.020316e+05 7.988032e+05 7.930996e+05 7.875044e+05 7.816338e+05 7.772128e+05 7.771350e+05 7.662941e+05 7.635007e+05 7.566829e+05 7.557356e+05 7.510525e+05 7.477396e+05 7.446402e+05 7.385401e+05 7.346693e+05 7.272547e+05 7.211647e+05 7.122130e+05 7.008905e+05 6.941009e+05 6.881521e+05 6.789868e+05 6.715337e+05 6.632459e+05 6.588750e+05 6.521183e+05 6.405423e+05 6.297018e+05 6.264678e+05 6.141941e+05 6.058708e+05 5.955347e+05 5.841065e+05 5.724995e+05 5.612767e+05 5.496133e+05 5.390145e+05 5.327951e+05 5.214576e+05 5.128872e+05 5.047957e+05 4.983917e+05 4.876381e+05 4.736652e+05 4.628373e+05 4.554516e+05 4.439988e+05 4.352335e+05 4.243136e+05 4.157384e+05 4.052763e+05 3.953606e+05 3.844374e+05 3.765119e+05 3.673001e+05 3.584992e+05 3.484550e+05 3.383923e+05 3.264868e+05 3.160645e+05 3.078819e+05 2.987255e+05 2.879259e+05 2.799118e+05 2.708002e+05 2.626517e+05 2.518984e+05 2.421511e+05 2.333086e+05 2.249499e+05 2.152940e+05 2.056742e+05 1.975882e+05 1.868187e+05 1.790003e+05 1.699619e+05 1.598690e+05 1.519716e+05 1.440276e+05 1.358760e+05 1.280178e+05 1.200207e+05 1.124060e+05 1.042201e+05 9.720592e+04 8.857403e+04 8.123787e+04 7.450536e+04 6.752844e+04 6.174283e+04 5.621662e+04 4.917913e+04 4.340430e+04 3.764315e+04 3.159150e+04 2.735101e+04 2.089073e+04 1.527329e+04 1.097270e+04 6.586624e+03 1.872838e+03 -3.802306e+03 -8.332669e+03 -8.332669e+03 1.216278e+05 1.216278e+05 1.559248e+05 1.588453e+05 1.619260e+05 1.666242e+05 1.704147e+05 1.704147e+05 1.709722e+05 1.727397e+05 1.742080e+05 1.742080e+05 1.787986e+05 1.787986e+05 1.843696e+05 1.872269e+05 1.883452e+05 1.922876e+05 1.964840e+05 2.071204e+05 2.071204e+05 2.193018e+05 2.193018e+05 2.262543e+05 2.411871e+05 2.447477e+05 2.542638e+05 2.590145e+05 2.726985e+05 2.823680e+05 2.916728e+05 3.067620e+05 3.113146e+05 3.275065e+05 3.443318e+05 3.573787e+05 3.692207e+05 3.692207e+05 3.807187e+05 4.045632e+05 4.045632e+05 4.306185e+05 4.396978e+05 4.396978e+05 4.603841e+05 4.827779e+05 4.827779e+05 5.078887e+05 5.244885e+05 5.562070e+05 5.562070e+05 5.816034e+05 6.381444e+05 6.800431e+05 7.617824e+05 7.981253e+05 1.196362e+05 2.163136e+05 2.163136e+05 2.163136e+05 2.218578e+05 1.851341e+05 1.851341e+05 1.851341e+05 1.926123e+05 1.926123e+05 2.309761e+05 2.309761e+05 2.309761e+05 2.330210e+05 2.293738e+05 1.061167e+05 1.970859e+05 1.970859e+05 1.912700e+05 2.183040e+05 2.183040e+05 2.183040e+05 2.139769e+05 2.102647e+05 4.125801e+05 4.125801e+05 4.125801e+05 4.005357e+05 1.427056e+05 1.427056e+05 1.427056e+05 1.390530e+05 1.351592e+05 1.351592e+05 2.100647e+05 2.100647e+05 1.851087e+05 1.812293e+05 1.196362e+05 1.196362e+05 1.621470e+05 1.621470e+05 1.621470e+05 1.595780e+05 1.539220e+05 1.539220e+05 1.580569e+05 1.977205e+05 1.977205e+05 1.977205e+05 1.983182e+05 1.913651e+05 2.074935e+05 2.069099e+05 1.569982e+05 1.569982e+05 1.569982e+05 1.483828e+05 7.884532e+04 5.770055e+04 4.001541e+04 5.770055e+04 3.226833e+05 3.226833e+05 3.226833e+05 3.748298e+05 3.748298e+05 3.748298e+05 3.618955e+05 1.358042e+04 5.606112e+03 1.358042e+04 1.358042e+04 3.090542e+05 3.090542e+05 3.090542e+05 3.102200e+05 4.612220e+05 4.612220e+05 4.612220e+05 4.493353e+05 5.395594e+05 5.395594e+05 5.395594e+05 5.126126e+05 5.126126e+05 4.673980e+04 4.673980e+04 4.673980e+04 4.296117e+04 1.009796e+05 1.009796e+05 1.009796e+05 9.259905e+04 9.259905e+04 6.148541e+05 6.148541e+05 6.148541e+05 6.291985e+05 2.399233e+05 2.399233e+05 2.399233e+05 2.378699e+05 2.378699e+05 -1.397236e+04 -1.033564e+04 6.241747e+05 6.241747e+05 6.241747e+05 6.040119e+05 6.797801e+05 6.797801e+05 6.797801e+05 7.093552e+05 7.093552e+05 3.192596e+05 3.192596e+05 3.192596e+05 3.116067e+05 6.689621e+05 6.689621e+05 6.689621e+05 6.426542e+05 3.764315e+04 4.548761e+05 4.548761e+05 4.548761e+05 3.629544e+05 3.629544e+05 3.629544e+05 3.625531e+05 2.751548e+05 2.751548e+05 2.751548e+05 2.777462e+05 1.519716e+05 1.173261e+05 1.173261e+05 1.173261e+05 1.141184e+05 2.169913e+05 2.169913e+05 2.169913e+05 2.141245e+05 2.141245e+05 -1.033564e+04 -1.033564e+04 -1.397236e+04 5.215539e+05 5.215539e+05 5.215539e+05 5.574119e+05 5.574119e+05 2.354597e+05 2.408629e+05 2.408629e+05 4.314271e+05 4.314271e+05 4.314271e+05 4.554730e+05 4.554730e+05 4.027768e+05 4.027768e+05 4.027768e+05 4.093401e+05 4.887204e+04 3.974125e+04 4.887204e+04 4.887204e+04 5.338472e+04 1.907660e+05 1.907660e+05 1.907660e+05 1.986745e+05 2.094973e+05 2.211276e+05 2.211276e+05 1.377091e+05 1.377091e+05 1.220052e+05 1.220052e+05 2.367475e+05 2.367475e+05 2.367475e+05 2.521436e+05 2.521436e+05 1.286156e+05 1.286156e+05 1.286156e+05 1.281325e+05 1.215972e+05 1.744154e+05 1.583711e+05 3.044993e+05 3.044993e+05 3.044993e+05 2.993191e+05 3.504179e+05 3.504179e+05 3.504179e+05 3.429528e+05 2.474830e+05 2.474830e+05 2.474830e+05 3.942514e+05 3.942514e+05 3.942514e+05 1.406530e+05 1.406530e+05 1.406530e+05 4.450072e+05 4.450072e+05 4.450072e+05 5.061887e+04 5.061887e+04 5.061887e+04 4.961304e+04 4.303419e+04 1.479827e+05 1.479827e+05 1.479827e+05 6.342384e+04 6.342384e+04 6.466717e+04 2.789642e+05 2.789642e+05 2.789642e+05 2.872336e+05 1.744556e+05 1.744556e+05 1.744556e+05 1.736198e+05 1.331321e+05 1.331321e+05 5.540638e+05 5.540638e+05 5.540638e+05 5.358932e+05 1.350852e+04 1.350852e+04 1.350852e+04 1.373827e+04 8.012470e+04 8.012470e+04 8.012470e+04 8.176697e+04 5.157419e+05 5.157419e+05 5.157419e+05 3.398439e+05 3.398439e+05 3.398439e+05 3.400660e+05 1.935361e+05 1.935361e+05 1.935361e+05 1.939778e+05 1.917639e+05 1.917639e+05 1.917639e+05 1.872565e+05 2.562162e+05 2.562162e+05 2