<?xml version="1.0"?>
 <VTKFile type="UnstructuredGrid" version="1.0" byte_order="LittleEndian" header_type="UInt64">
  <UnstructuredGrid>
    <FieldData>
     <DataArray type="Float64" Name="TimeValue" NumberOfTuples="1" format="ascii">
0.00027
     </DataArray>
    </FieldData>
   <Piece NumberOfPoints="3548" NumberOfCells="3379">
    <PointData>
     <DataArray type="Float64" Name="pointP" format="ascii">
-1.225849e+04 -1.533932e+04 -1.828781e+04 -2.155095e+04 -2.523033e+04 -2.733548e+04 -2.933109e+04 -3.250109e+04 -3.570651e+04 -3.731231e+04 -3.666237e+04 -3.499847e+04 -3.395553e+04 -3.916947e+04 -4.135284e+04 -4.538458e+04 -4.364980e+04 -3.873209e+04 -3.969923e+04 -4.256002e+04 -4.195109e+04 -3.680506e+04 -3.912055e+04 -4.386905e+04 -3.820931e+04 -3.312036e+04 -3.058145e+04 -3.694852e+04 -3.960842e+04 -1.983850e+04 -2.175991e+04 -1.974614e+04 -1.864735e+04 -2.273576e+04 -2.346881e+04 -2.721092e+04 -1.481514e+04 -1.550464e+04 -1.690296e+04 1.736789e+03 -8.396756e+02 -8.803560e+03 -4.446977e+03 -7.465492e+03 -1.468447e+04 1.208870e+03 -5.592719e+03 -5.491781e+03 -2.918043e+03 -1.401218e+04 -5.476773e+02 -6.625755e+03 -1.861599e+04 -8.651574e+03 -5.030403e+03 -1.002312e+04 -1.187250e+04 -3.089568e+04 -1.929589e+04 -1.232405e+04 1.442955e+04 1.176718e+04 -1.202601e+03 -1.835988e+04 -2.823487e+04 -2.029893e+04 -4.223052e+04 -3.295418e+04 -3.637829e+04 -1.179798e+04 4.669868e+03 6.654774e+02 2.807089e+03 -5.194490e+03 1.873394e+01 -1.623500e+04 -3.773819e+04 -1.829270e+05 -3.725426e+05 -3.136498e+05 -2.684848e+05 -2.684848e+05 -2.319790e+05 -2.196425e+05 -2.147551e+05 -2.109570e+05 -2.109570e+05 -2.055456e+05 -1.930314e+05 -1.881001e+05 -1.841856e+05 -1.828250e+05 -1.765611e+05 -1.745747e+05 -1.701188e+05 -1.592717e+05 -1.553331e+05 -1.506886e+05 -1.439514e+05 -1.408553e+05 -1.375722e+05 -1.316284e+05 -1.316284e+05 -1.268548e+05 -1.203025e+05 -1.184708e+05 -1.146355e+05 -1.116910e+05 -1.078767e+05 -1.025961e+05 -9.737263e+04 -9.592578e+04 -9.362476e+04 -8.856594e+04 -8.675050e+04 -7.992959e+04 -7.845184e+04 -7.575453e+04 -7.272103e+04 -7.114661e+04 -6.511539e+04 -6.415692e+04 -6.000525e+04 -5.714231e+04 -5.511207e+04 -5.057347e+04 -4.956972e+04 -4.417903e+04 -4.417903e+04 -4.147939e+04 -3.756072e+04 -3.242371e+04 -3.242371e+04 -2.828155e+04 -2.461487e+04 -2.461487e+04 -2.124186e+04 -1.802817e+04 -1.600426e+04 -1.218350e+04 -1.218350e+04 -7.731506e+03 -7.731506e+03 -5.158071e+03 -2.837721e+03 3.460733e+02 2.373250e+03 4.082569e+03 8.249852e+03 8.249852e+03 1.122341e+04 1.328881e+04 1.525760e+04 1.830666e+04 1.830666e+04 -4.672458e+03 -4.672458e+03 -4.672458e+03 -1.341302e+03 6.048887e+04 6.048887e+04 6.048887e+04 2.579437e+04 2.579437e+04 2.579437e+04 3.551085e+04 -3.659170e+04 -3.659170e+04 -3.659170e+04 -4.419228e+04 -8.504354e+04 -8.504354e+04 -8.504354e+04 -9.422721e+04 -2.001395e+05 -2.001395e+05 -2.001395e+05 -1.980690e+05 -1.930949e+05 -1.748198e+05 -1.748198e+05 -1.748198e+05 -1.711083e+05 -3.185239e+02 -3.185239e+02 -3.185239e+02 -6.874740e+04 -6.874740e+04 -6.874740e+04 -6.520741e+04 -6.670894e+04 -2.705629e+05 -2.705629e+05 -2.705629e+05 -3.092772e+05 -2.628008e+04 -2.628008e+04 -2.628008e+04 -1.831523e+04 -1.831523e+04 -9.272413e+04 -9.272413e+04 -9.272413e+04 -9.747992e+04 -1.230378e+05 -9.775020e+04 -9.775020e+04 -9.775020e+04 -1.075469e+05 -1.680524e+05 -1.271851e+05 -1.271851e+05 -1.271851e+05 -1.350259e+05 -1.579847e+05 -1.579847e+05 -1.579847e+05 -1.792038e+04 -1.792038e+04 -6.054675e+04 -6.054675e+04 -1.228062e+05 -1.228062e+05 -1.228062e+05 -4.576418e+04 -1.571834e+05 -1.571834e+05 -1.571834e+05 -5.092159e+04 -2.849365e+05 -2.849365e+05 -4.192226e+05 -4.192226e+05 -2.662500e+05 -2.662500e+05 -2.662500e+05 -2.212847e+05 -2.212847e+05 -4.117357e+05 -4.117357e+05 -4.117357e+05 -3.834673e+05 -3.834673e+05 -1.450401e+04 -2.406029e+05 -2.406029e+05 -2.406029e+05 -2.353225e+05 -5.627202e+04 -5.627202e+04 -5.627202e+04 -5.933686e+04 -5.933686e+04 -1.026407e+05 -1.026407e+05 -1.026407e+05 -9.117917e+04 -9.117917e+04 -1.366229e+05 -1.366229e+05 -1.366229e+05 -1.397853e+05 -1.397853e+05 -1.611953e+05 -1.611953e+05 -1.611953e+05 -1.505634e+05 -1.505634e+05 -1.770161e+04 -1.770161e+04 -1.770161e+04 -1.608200e+04 -2.134450e+04 -2.134450e+04 -2.134450e+04 -2.917510e+04 -1.102989e+05 -1.102989e+05 -1.102989e+05 -1.195303e+05 -1.195303e+05 3.166005e+04 3.166005e+04 3.166005e+04 -3.006809e+04 -3.006809e+04 -3.006809e+04 -2.581180e+04 -2.581180e+04 1.493969e+04 1.493969e+04 1.493969e+04 3.181947e+04 3.181947e+04 -4.796589e+04 -4.796589e+04 -4.796589e+04 -3.692597e+04 -1.107909e+05 -1.107909e+05 -1.813430e+05 -1.813430e+05 -1.813430e+05 -5.393105e+04 -5.393105e+04 -4.212422e+04 -4.212422e+04 -3.529891e+04 -3.529891e+04 -3.529891e+04 -3.539383e+04 -3.026456e+05 -3.026456e+05 -3.026456e+05 -2.699087e+05 -3.408520e+04 -3.408520e+04 -2.876356e+05 -2.876356e+05 -2.876356e+05 -9.879007e+04 -9.879007e+04 -9.879007e+04 -1.087571e+05 -1.087571e+05 -4.220605e+05 -4.220605e+05 -4.220605e+05 -4.553472e+05 -4.553472e+05 -1.306703e+05 -1.306703e+05 -1.125199e+05 -1.329422e+05 -1.329422e+05 -1.329422e+05 -5.263264e+04 -5.263264e+04 -3.960842e+04 -1.131716e+05 -1.131716e+05 -1.131716e+05 -3.818874e+04 -9.501304e+04 -5.787333e+04 -1.342067e+05 -1.342067e+05 -1.342067e+05 -1.670117e+05 -1.670117e+05 -1.670117e+05 -1.251500e+05 -1.251500e+05 -1.251500e+05 -3.234049e+05 -3.234049e+05 -3.234049e+05 -2.727599e+05 -2.727599e+05 -1.919307e+05 -1.919307e+05 -1.919307e+05 -2.073220e+05 -2.073220e+05 -1.832108e+05 -1.832108e+05 -1.762494e+05 -1.762494e+05 -1.905270e+05 -1.905270e+05 -1.849163e+05 -1.926196e+04 -1.926196e+04 -2.127803e+04 -2.127803e+04 -2.136735e+04 -2.136735e+04 7.940715e+04 7.321252e+04 7.940715e+04 7.940715e+04 -7.658250e+04 -9.259756e+04 -9.259756e+04 -1.812082e+05 -1.812082e+05 -1.812082e+05 -2.006379e+05 -2.006379e+05 -2.006379e+05 -3.994565e+04 -9.841892e+04 -9.841892e+04 -8.025571e+04 -8.025571e+04 -8.973052e+04 -6.028688e+04 -5.530851e+04 1.176718e+04 -1.788160e+05 -1.788160e+05 -1.034915e+05 -1.034915e+05 -2.824911e+04 -2.175991e+04 -1.156867e+05 -1.156867e+05 -1.747814e+05 -1.747814e+05 -1.747814e+05 -8.628422e+04 -1.833019e+05 -2.523033e+04 -3.075479e+04 -3.075479e+04 -2.346881e+04 -1.017408e+05 -1.017408e+05 -1.450401e+04 -7.432867e+04 -7.432867e+04 -4.570844e+04 -4.615608e+04 -4.615608e+04 -4.615608e+04 -4.863700e+04 -1.080427e+05 -1.080427e+05 -4.854807e+04 -6.599440e+04 -6.599440e+04 -6.599440e+04 -4.878120e+04 -4.878120e+04 -6.222508e+04 -4.319266e+04 -4.319266e+04 -4.400836e+04 -3.250109e+04 -3.381132e+04 -6.301177e+04 -6.301177e+04 -1.755809e+05 -1.214829e+05 -1.377125e+05 -1.377125e+05 -1.202668e+05 -1.187250e+04 -1.219692e+05 -1.219692e+05 -3.968682e+04 -2.733548e+04 -3.559331e+04 -1.616542e+05 -9.117484e+04 -7.397392e+04 -5.354733e+04 -5.354733e+04 -1.109254e+05 -1.177997e+05 -2.122983e+05 -1.177248e+05 -1.177248e+05 -1.177248e+05 -9.976868e+04 -9.976868e+04 -2.887450e+04 -2.887450e+04 -4.251805e+04 -4.403210e+04 -5.759963e+04 -4.603463e+05 -1.977440e+05 -1.977440e+05 -2.272669e+04 -1.122068e+05 -1.723353e+05 -1.571726e+05 -3.358854e+04 -1.357667e+05 -9.128286e+04 -2.030526e+05 -2.248479e+05 -2.248479e+05 -1.261689e+05 -1.289984e+05 -1.885407e+05 -2.716029e+05 -3.781931e+05 -4.224028e+04 -4.224028e+04 -4.258828e+04 -1.981784e+05 -2.030433e+05 -2.030433e+05 -2.103567e+05 -6.375839e+04 -6.375839e+04 -6.375839e+04 -6.755142e+04 -4.190977e+05 -2.524372e+05 -9.317571e+04 -9.317571e+04 -9.317571e+04 -9.049455e+04 -1.634686e+05 -2.328144e+05 -3.503891e+05 -3.503891e+05 -1.390937e+05 -1.509539e+05 -1.504387e+05 -1.622575e+05 -1.892558e+05 -5.613327e+04 -3.026883e+05 -2.971530e+05 -2.971530e+05 -2.994766e+05 -2.994766e+05 -3.792274e+05 -3.792274e+05 -1.349872e+05 -1.349872e+05 -3.623234e+05 -2.479788e+05 -4.816945e+04 -4.816945e+04 -9.836322e+04 -9.836322e+04 -6.908870e+04 -2.158606e+05 -7.514376e+04 -7.675666e+04 -2.277810e+05 -2.234427e+05 -4.395573e+05 -4.395573e+05 -3.918866e+05 -4.069100e+05 -2.492906e+04 -3.992347e+05 -3.992347e+05 -2.128610e+05 -2.046459e+05 -4.597048e+05 -4.306864e+05 -4.270575e+05 -1.920093e+05 -2.520505e+05 -6.898916e+04 -6.898916e+04 -1.709632e+05 -2.511985e+04 -3.932215e+05 -2.663547e+05 -4.498223e+04 -1.304199e+05 -1.304199e+05 -1.304199e+05 -1.262593e+05 -1.262593e+05 -1.638046e+05 -1.679351e+05 -1.163132e+05 -1.176699e+05 -2.765961e+05 -3.854414e+05 -8.731707e+04 -2.254135e+05 -4.537917e+05 -1.526752e+05 -2.798627e+05 -2.559296e+05 -2.559296e+05 -2.559296e+05 -1.827589e+05 -1.721730e+05 -9.104613e+04 -8.607168e+04 -3.108266e+05 -3.108266e+05 -2.762279e+05 -2.335068e+05 -2.335068e+05 -2.490162e+05 -2.490162e+05 -1.018309e+05 -2.473316e+05 -2.625188e+05 -2.625188e+05 -1.293725e+05 -1.293725e+05 -8.521888e+04 -1.171783e+05 -1.171783e+05 -1.180228e+05 -2.315804e+05 -2.315804e+05 -2.235866e+05 -2.235866e+05 -2.235866e+05 -2.433574e+05 -9.359286e+04 -2.526803e+04 -1.883615e+05 -1.883615e+05 -1.879701e+05 -1.636363e+04 -1.100052e+05 -9.920845e+04 -2.121971e+05 -3.353314e+05 -7.343581e+04 -6.937542e+04 -1.633948e+05 -1.633948e+05 -7.510318e+04 -7.510318e+04 -1.494953e+05 -2.198892e+05 -2.058132e+05 -2.058132e+05 -1.136018e+05 -1.044113e+05 -1.636363e+04 -1.142183e+05 -1.307501e+05 -1.307501e+05 -6.558829e+04 -2.072846e+05 -2.072846e+05 -2.251499e+05 -2.065533e+05 -2.065533e+05 -2.054854e+04 -2.054854e+04 -2.758080e+04 -1.207320e+05 -1.207320e+05 -1.207320e+05 -1.298669e+05 -2.162146e+05 -3.996096e+04 -6.911471e+03 -1.082984e+05 -1.082984e+05 -1.626270e+05 -1.626270e+05 -1.727051e+05 -1.447092e+04 -1.808276e+05 -1.896974e+05 -1.896974e+05 -1.169400e+05 -2.066705e+05 -2.066705e+05 -1.976909e+05 -1.840897e+05 -1.004621e+05 -1.655977e+05 -1.655977e+05 -1.655977e+05 -4.072858e+04 -5.342933e+04 -1.480838e+05 -1.356046e+05 -1.356046e+05 -1.405509e+05 -1.405509e+05 -1.405509e+05 -1.542738e+05 -1.949803e+05 -1.072011e+05 -1.072011e+05 -9.665330e+04 -1.845737e+05 -1.493274e+05 -1.493274e+05 -1.493274e+05 -1.510101e+05 -1.275301e+05 -1.213220e+05 1.252260e+04 -5.799740e+03 -1.566652e+04 -5.668654e+04 -1.075838e+05 -9.349876e+04 -8.040368e+04 -8.040368e+04 -1.589962e+05 -1.589962e+05 -1.771731e+05 -1.733668e+05 -7.559431e+04 -7.559431e+04 -7.559431e+04 -1.570570e+05 -5.848080e+02 -1.382199e+05 7.488626e+03 1.081703e+04 -9.117768e+04 -7.979357e+04 -1.515766e+05 -1.693442e+05 -1.510693e+05 -1.367281e+05 -1.367281e+05 -4.936802e+04 -4.936802e+04 -4.936802e+04 3.216874e+04 -9.140779e+04 -8.343280e+04 -8.119276e+04 -4.629890e+04 -7.344442e+04 -6.418932e+04 9.772433e+03 -1.762379e+04 -1.053019e+05 -1.053019e+05 -1.053019e+05 -1.244463e+05 -1.311446e+05 -4.443292e+04 -4.443292e+04 -8.541746e+04 -8.541746e+04 -2.185570e+04 -1.234732e+04 -6.467345e+04 -3.949377e+03 -5.845900e+04 4.356339e+04 -1.488244e+04 -1.488244e+04 1.002749e+04 3.669182e+04 3.669182e+04 5.203998e+02 5.203998e+02 1.683427e+04 1.683427e+04 -1.716554e+04 3.145465e+04 3.145465e+04 -2.895545e+03 4.872226e+04 6.508694e+04 7.295561e+04 1.309773e+04 1.309773e+04 1.309773e+04 -1.735919e+05 -1.735919e+05 -1.735919e+05 -1.762973e+05 -1.762973e+05 1.958016e+03 1.958016e+03 1.958016e+03 7.064953e+03 -1.817067e+05 -1.817067e+05 -1.791532e+05 -1.791532e+05 -2.470288e+05 -2.470288e+05 -2.470288e+05 -4.538248e+03 -4.538248e+03 -4.538248e+03 -7.632456e+03 -7.635410e+04 -7.635410e+04 -7.635410e+04 -6.979918e+04 -5.704812e+04 -5.704812e+04 -1.008231e+05 -1.008231e+05 -1.008231e+05 -1.192592e+05 -1.192592e+05 -1.192592e+05 -1.517114e+05 -1.517114e+05 -1.517114e+05 -1.597626e+05 -1.597626e+05 -1.597626e+05 -1.617819e+05 -2.997163e+04 -2.997163e+04 -2.997163e+04 -5.318896e+04 -5.318896e+04 -5.318896e+04 -1.972392e+04 -1.972392e+04 -1.972392e+04 -3.576390e+04 -3.576390e+04 -3.576390e+04 -4.231349e+04 -4.231349e+04 1.615253e+04 1.615253e+04 4.670915e+03 -8.401113e+03 3.699036e+04 3.699036e+04 3.699036e+04 -3.261325e+04 -3.261325e+04 -1.117269e+05 -1.117269e+05 -1.117269e+05 -8.168282e+04 -8.168282e+04 -8.168282e+04 -1.163221e+05 -1.163221e+05 -1.163221e+05 -1.208245e+05 -1.309548e+05 -1.309548e+05 -1.309548e+05 -1.290917e+05 -1.366389e+05 -1.366389e+05 -1.366389e+05 -1.114790e+05 -1.114790e+05 -1.114790e+05 -1.121819e+05 -1.147999e+05 -8.505210e+04 -8.505210e+04 -8.505210e+04 -1.349948e+05 -1.349948e+05 -1.214662e+05 -1.214662e+05 -1.178123e+05 -1.066813e+05 -1.066813e+05 -6.962773e+04 -6.962773e+04 -6.962773e+04 -5.739241e+04 -5.739241e+04 -5.908975e+04 -5.908975e+04 -5.908975e+04 -1.183651e+05 -3.663436e+04 -3.663436e+04 -3.663436e+04 -1.998253e+03 -4.474381e+03 6.462679e+04 6.462679e+04 2.489190e+04 2.489190e+04 -6.032637e+04 -6.032637e+04 -6.032637e+04 -5.552259e+04 -5.087259e+04 -1.706715e+05 -1.706715e+05 -1.139127e+05 -1.821959e+05 -1.368990e+05 -1.368990e+05 -1.368990e+05 -9.889959e+04 -1.562011e+05 -1.562011e+05 -1.127249e+05 -8.809781e+04 -8.809781e+04 -8.755943e+04 -4.062680e+04 -4.062680e+04 -7.975920e+04 -7.975920e+04 -7.975920e+04 -2.045116e+05 -2.045116e+05 -2.045116e+05 -1.634940e+05 -1.671315e+05 -4.158364e+04 -1.889419e+05 -1.889419e+05 -1.889419e+05 -1.951663e+05 -1.404359e+05 -1.404359e+05 -6.923315e+04 -6.923315e+04 -1.026434e+05 -1.561209e+05 -1.561209e+05 -1.471987e+05 -1.471987e+05 -9.825987e+04 -9.825987e+04 -9.825987e+04 -1.791041e+04 -1.791041e+04 6.129705e+01 6.129705e+01 -1.258417e+05 -8.920441e+04 -8.920441e+04 -8.920441e+04 -1.049315e+05 -1.049315e+05 -5.539639e+04 -5.539639e+04 -1.730472e+05 -1.730472e+05 -8.320194e+03 -8.320194e+03 -9.355501e+04 -7.296008e+04 -7.296008e+04 -7.287371e+04 -7.287371e+04 -1.513644e+05 -1.513644e+05 -1.513644e+05 -7.814911e+04 -7.814911e+04 -7.814911e+04 -1.592177e+05 -1.200535e+05 -1.056624e+05 -1.000383e+05 -1.000383e+05 -9.628904e+04 -1.444501e+05 -6.621147e+04 -6.621147e+04 -5.082684e+04 -5.082684e+04 -5.082684e+04 -1.643113e+05 -1.641599e+05 -1.641599e+05 -4.853696e+04 -4.853696e+04 -4.572937e+04 -7.333781e+04 -7.426643e+04 -7.426643e+04 -1.510696e+04 -1.510696e+04 -1.510696e+04 -4.158140e+04 -4.158140e+04 -2.847227e+03 -5.922328e+04 -9.782801e+04 -9.782801e+04 1.955565e+04 -1.067662e+05 -1.067662e+05 -9.120232e+04 -8.259498e+04 -8.259498e+04 -8.279080e+04 -2.723875e+04 -2.723875e+04 -1.141156e+05 -1.141156e+05 -4.050644e+04 -8.315909e+04 -8.315909e+04 -6.942656e+04 -6.942656e+04 -6.698481e+04 -4.415559e+04 -9.477135e+04 -9.477135e+04 -6.457345e+04 -7.181782e+04 -1.473614e+05 -1.473614e+05 -1.001731e+05 -8.663288e+04 -1.740378e+04 -1.740378e+04 -1.740378e+04 -2.640117e+04 -2.640117e+04 -2.640117e+04 -5.937749e+04 -5.937749e+04 1.821936e+03 1.821936e+03 1.821936e+03 -7.865642e+04 -1.692339e+04 -2.695602e+04 -2.477678e+04 -9.256339e+03 -9.256339e+03 -9.256339e+03 -6.394552e+04 -3.446429e+04 -3.446429e+04 -4.387005e+04 -4.387005e+04 -4.387005e+04 2.007600e+04 -7.101723e+04 -3.924009e+04 -3.924009e+04 -2.857851e+04 -2.857851e+04 -2.857851e+04 -3.222538e+04 -1.535651e+04 -1.034069e+05 -1.034069e+05 -1.034069e+05 -9.237972e+04 -9.237972e+04 -8.512233e+04 2.067755e+04 -2.233700e+04 -5.103135e+04 -2.228482e+04 -2.228482e+04 -2.236649e+04 -2.193404e+04 -2.193404e+04 9.187630e+03 9.187630e+03 9.187630e+03 -3.427809e+04 -3.480435e+04 -7.412496e+04 -1.311579e+04 -9.749360e+03 -1.853370e+04 -6.941676e+04 2.098073e+04 2.098073e+04 2.183753e+04 4.774562e+03 4.774562e+03 -2.606243e+04 1.625262e+04 1.625262e+04 1.625262e+04 5.928851e+03 5.928851e+03 -4.950693e+04 -4.950693e+04 -4.482733e+04 -6.288842e+03 -6.288842e+03 6.105141e+03 -3.371480e+04 -2.411819e+04 1.209176e+04 2.418521e+04 5.314927e+03 -1.718913e+04 2.418521e+04 4.196240e+04 -2.232151e+05 -2.232151e+05 -1.391452e+05 -1.391452e+05 -2.110164e+05 -2.110164e+05 -1.487186e+05 -1.652177e+05 -2.114042e+05 -2.178009e+05 -2.910105e+05 3.530808e+04 3.530808e+04 -1.477521e+04 -1.120393e+05 -1.177938e+05 9.755345e+03 9.755345e+03 -2.309652e+05 -2.209563e+05 -2.334372e+05 -2.230081e+05 -2.230081e+05 -2.230081e+05 -2.053857e+05 -2.053857e+05 -2.053857e+05 -2.300459e+05 -1.988271e+05 -1.988271e+05 -1.943869e+05 -1.943869e+05 -2.174502e+05 -2.094829e+05 -2.106320e+05 -4.206488e+04 3.336262e+04 4.967222e+04 6.434970e+04 -1.953398e+02 -1.953398e+02 -6.277614e+04 -1.847063e+05 -2.152630e+05 -1.953947e+05 -1.888599e+05 -1.888599e+05 -1.589602e+05 -1.262208e+05 -9.145714e+04 -6.687803e+04 -6.687803e+04 -4.307945e+04 3.894572e+03 -9.248620e+03 1.765228e+04 1.765228e+04 1.765228e+04 -4.787318e+04 -2.321470e+04 -3.121761e+04 -3.121761e+04 -1.373646e+05 -4.806844e+04 -4.806844e+04 -9.312253e+04 -1.309830e+05 -7.670364e+04 -7.670364e+04 1.442430e+04 1.442430e+04 1.442430e+04 1.138800e+04 1.138800e+04 1.834116e+04 -8.397744e+04 -7.406639e+04 -6.164274e+04 -3.521519e+04 1.734885e+03 -1.437035e+05 -1.078785e+05 -1.063185e+05 -3.655903e+04 -8.261321e+04 -2.126549e+04 -5.378332e+04 -2.547817e+04 -2.547817e+04 -5.189847e+03 -3.665740e+04 -2.662599e+04 -6.500003e+03 -3.398136e+04 1.536223e+04 5.793719e+03 5.793719e+03 8.316493e+03 -9.366742e+03 2.854511e+03 -3.323921e+04 -3.323921e+04 -4.344865e+04 -4.494805e+04 -1.535573e+04 -1.854129e+04 -5.440364e+02 -1.344672e+04 8.207594e+03 -3.611780e+04 5.452404e+03 5.452404e+03 5.452404e+03 6.498877e+03 1.312851e+03 1.312851e+03 -1.280156e+04 -1.280156e+04 -2.675205e+03 -4.221469e+03 -4.221469e+03 1.432140e+04 -1.087071e+04 -2.120376e+03 -7.177238e+03 1.521672e+04 1.034248e+04 1.955565e+04 1.955565e+04 1.737020e+04 -4.075869e+04 8.241995e+03 8.241995e+03 1.071492e+04 1.071492e+04 -3.391473e+03 1.521007e+04 1.372902e+04 1.080134e+04 1.080134e+04 -4.270553e+04 -4.270553e+04 -2.484709e+04 -1.301877e+03 3.926543e+04 1.457097e+04 -2.085923e+04 -2.638801e+04 -2.025115e+05 -2.025115e+05 -2.025115e+05 -2.104255e+05 -2.211788e+05 -2.211788e+05 -2.211788e+05 -2.219104e+05 -7.691540e+04 -7.691540e+04 -1.495386e+05 -1.495386e+05 -9.353963e+04 -1.663619e+05 -1.663619e+05 -1.663619e+05 -7.504982e+04 -2.535475e+05 -2.535475e+05 -2.535475e+05 -2.513610e+05 -2.374690e+05 -2.284483e+05 -1.559772e+05 -1.559772e+05 -3.306248e+05 -9.132345e+04 -9.132345e+04 -9.132345e+04 -3.968840e+05 -3.968840e+05 -3.968840e+05 -3.978628e+05 -3.978628e+05 -4.492646e+05 -3.108269e+05 -1.942733e+05 -2.260368e+05 -2.260368e+05 -2.885275e+05 -3.725426e+05 -2.929849e+05 -2.929849e+05 -2.929849e+05 -2.528367e+05 -2.528367e+05 -4.492646e+05 -4.106931e+05 -4.155427e+05 -3.755936e+05 -4.843074e+05 -4.843074e+05 -3.947021e+05 -3.776222e+05 -3.207333e+05 -2.474524e+05 -2.278862e+05 -2.115706e+05 -2.115706e+05 -1.930030e+05 -1.786559e+05 -1.623735e+05 -1.623735e+05 -1.623735e+05 -1.461717e+05 -1.461717e+05 -1.105660e+05 -8.667390e+04 -8.667390e+04 -4.122795e+02 -7.030334e+04 -7.030334e+04 -7.030334e+04 -6.941518e+04 -6.941518e+04 -9.395303e+04 -9.395303e+04 -9.395303e+04 -1.841856e+05 -1.841856e+05 -6.598471e+04 1.347005e+04 1.347005e+04 1.347005e+04 -1.147026e+05 -1.147026e+05 -1.147026e+05 -1.094754e+05 -1.073911e+05 -1.777555e+04 -1.777555e+04 -1.777555e+04 -1.299817e+05 -1.299817e+05 -1.299817e+05 -1.872419e+05 -1.872419e+05 -1.872419e+05 -1.856459e+05 -1.856459e+05 -1.574786e+05 -1.574786e+05 -1.574786e+05 -9.403993e+04 -9.403993e+04 -1.691815e+05 -1.691815e+05 -1.691815e+05 -1.662495e+05 -1.662495e+05 -1.422249e+05 -1.422249e+05 -1.422249e+05 -2.349301e+04 -2.349301e+04 -2.349301e+04 -1.328826e+05 -1.328826e+05 -1.328826e+05 -1.429671e+05 -1.429671e+05 -2.776617e+04 -2.776617e+04 -2.776617e+04 -2.062511e+04 -2.062511e+04 5.148529e+04 2.675968e+03 2.675968e+03 2.675968e+03 7.847146e+03 -4.430049e+04 -4.430049e+04 -4.430049e+04 -3.769922e+04 -5.500970e+03 -5.500970e+03 -5.500970e+03 -1.005672e+05 -1.111237e+05 -8.619312e+04 -8.619312e+04 -8.619312e+04 -9.015037e+04 2.859332e+03 2.859332e+03 2.859332e+03 -1.574500e+05 -1.574500e+05 -1.574500e+05 -1.507364e+05 -1.507364e+05 -1.293675e+05 -1.293675e+05 -1.293675e+05 -1.315995e+05 -1.432375e+05 -1.432375e+05 -1.332607e+05 -1.332607e+05 -1.592717e+05 -1.557886e+05 -1.530019e+05 -9.604954e+04 -2.803217e+05 -1.597439e+05 -1.786559e+05 -1.791594e+05 -1.791594e+05 -1.373828e+04 -1.373828e+04 -1.373828e+04 -7.903096e+04 -7.903096e+04 2.317175e+04 2.317175e+04 2.317175e+04 -1.900113e+05 -1.900113e+05 -1.900113e+05 -5.714231e+04 -5.714231e+04 -1.184708e+05 -1.184708e+05 -8.422480e+04 -8.422480e+04 -8.422480e+04 -1.122193e+05 -1.122193e+05 -1.122193e+05 -1.255951e+05 -1.255951e+05 -1.255951e+05 -1.923721e+05 -2.828155e+04 -2.828155e+04 -1.025961e+05 -1.025961e+05 -8.856594e+04 -8.856594e+04 -1.454671e+05 -1.454671e+05 -1.512274e+05 -1.751945e+05 -1.751945e+05 -1.751945e+05 -1.743965e+05 -2.524870e+05 -2.320216e+05 -1.596270e+05 -5.298336e+04 -5.298336e+04 -5.298336e+04 -1.357983e+05 -1.357983e+05 -1.941992e+05 -1.941992e+05 -2.014679e+05 -2.014679e+05 -2.041019e+05 -2.041019e+05 -1.167434e+05 -1.167434e+05 -1.242646e+05 -1.715211e+05 -1.715211e+05 -6.532506e+04 -6.532506e+04 -6.532506e+04 -1.315270e+05 -1.240960e+05 -1.569768e+05 -7.670225e+04 -7.670225e+04 -7.670225e+04 -8.081501e+04 -8.081501e+04 -8.081501e+04 -1.004858e+05 -5.568705e+04 -5.568705e+04 -5.568705e+04 -4.671888e+04 -4.671888e+04 -4.671888e+04 -1.092180e+05 -1.092180e+05 -1.893022e+05 -1.820100e+05 -8.571270e+04 -8.571270e+04 -9.389607e+04 -9.389607e+04 -9.650817e+04 -9.239305e+04 -1.423621e+05 -1.063806e+05 -1.102923e+05 -1.102923e+05 -1.150588e+05 -7.678332e+04 -4.941601e+04 -4.941601e+04 -1.497438e+05 -1.536632e+05 -7.300463e+04 -7.300463e+04 -5.370644e+04 -9.679679e+04 -9.679679e+04 -1.024884e+05 -6.150747e+04 -6.150747e+04 -6.150747e+04 -9.250524e+04 -8.875747e+04 -6.549194e+04 -6.549194e+04 -6.549194e+04 -4.339051e+04 -4.339051e+04 -1.661608e+05 -1.055107e+05 -1.239199e+05 -1.239199e+05 -1.201415e+05 -2.814721e+04 -1.050780e+05 -1.050780e+05 -1.050780e+05 -1.024613e+05 -9.707685e+04 -1.937895e+04 -1.937895e+04 -1.937895e+04 -2.418838e+04 -4.074687e+04 -4.074687e+04 -4.049310e+04 -4.049310e+04 -7.827791e+04 -1.150307e+05 -1.050952e+05 -1.107852e+05 -7.220262e+04 -7.220262e+04 -7.220262e+04 -6.989790e+04 -6.989790e+04 -2.883345e+04 -2.883345e+04 -2.883345e+04 -9.732839e+04 -4.036371e+04 -3.662934e+04 -3.662934e+04 -6.474039e+04 -6.474039e+04 -8.034329e+04 -8.728352e+04 -5.136669e+04 -5.136669e+04 -5.136669e+04 -2.053486e+04 -2.053486e+04 -4.458744e+03 -4.458744e+03 -4.458744e+03 -4.834945e+04 -4.834945e+04 -5.451519e+04 -3.608313e+04 -3.608313e+04 1.030690e+04 1.030690e+04 4.997346e+03 4.997346e+03 -5.611634e+04 -6.566741e+04 -6.566741e+04 1.956538e+03 1.956538e+03 -8.154047e+04 -3.096709e+04 -3.485281e+04 -3.485281e+04 -5.237252e+04 -2.358275e+04 -2.358275e+04 -4.491292e+04 -4.491292e+04 -4.491292e+04 -3.917409e+04 -1.193980e+03 -1.193980e+03 -1.193980e+03 -1.322413e+04 -5.046214e+03 -9.428092e+04 -9.428092e+04 -9.428092e+04 -6.494884e+04 -3.203283e+04 -1.762591e+04 -2.926519e+04 -3.774811e+04 -5.290593e+04 -7.626532e+04 -1.245877e+04 -1.245877e+04 -2.550424e+03 2.126658e+04 2.126658e+04 2.126658e+04 -1.596750e+04 -1.550426e+04 -6.049418e+04 -1.132436e+04 -7.366270e+03 -7.338375e+03 -5.667265e+04 -8.360562e+02 -8.360562e+02 -1.295548e+04 -4.588180e+04 2.635200e+04 2.580478e+04 -3.576498e+04 -3.576498e+04 -2.574994e+04 7.896589e+03 2.635200e+04 1.219728e+04 1.219728e+04 1.219728e+04 1.397136e+04 -3.120185e+04 -7.882023e+03 2.931740e+04 1.968178e+04 1.968178e+04 1.968178e+04 1.415106e+04 1.415106e+04 2.931740e+04 -4.938968e+02 -4.938968e+02 2.643920e+04 -9.968007e+03 -9.968007e+03 -1.229677e+04 -3.114561e+02 3.201537e+04 3.201537e+04 3.201537e+04 8.537421e+03 1.392702e+04 1.392702e+04 2.707991e+04 -4.122795e+02 -4.122795e+02 3.470364e+04 2.879623e+04 3.052971e+04 2.188094e+04 2.188094e+04 1.852542e+04 3.814363e+04 3.782792e+04 3.782792e+04 4.300905e+04 3.470364e+04 3.470364e+04 4.070761e+04 -9.592578e+04 -1.701188e+05 -2.109570e+05 -2.319790e+05 -2.319790e+05 -1.146355e+05 -1.416977e+05 -1.416977e+05 -1.746614e+05 -1.768961e+05 -2.055456e+05 -2.055456e+05 -2.147551e+05 -1.802604e+05 -2.343658e+05 -2.247012e+05 -2.047074e+05 -6.906976e+04 -1.975637e+04 1.068715e+04 -1.235164e+05 -2.204811e+05 -2.188665e+05 -1.854252e+05 -4.138412e+04 -4.091427e+04 2.816992e+02 6.439995e+03 -1.244941e+05 4.059986e+03 -1.316098e+05 7.260415e+03 1.732014e+04 1.732014e+04 1.732014e+04 -9.244251e+03 -7.845184e+04 -7.845184e+04 -7.455915e+04 -1.282109e+05 -1.375722e+05 -1.129033e+05 -6.000525e+04 -1.078767e+05 -7.575453e+04 -4.417903e+04 -3.756072e+04 -3.756072e+04 -2.461487e+04 -1.218350e+04 -7.272103e+04 -4.538496e+04 -4.538496e+04 -6.970724e+04 -5.057347e+04 -7.731506e+03 -4.286098e+04 -1.098536e+04 -5.158071e+03 -3.601556e+04 -1.290551e+04 -1.600426e+04 -1.600426e+04 -3.242371e+04 -2.124186e+04 -2.401506e+04 8.249852e+03 1.122341e+04 1.122341e+04 -2.837721e+03 -4.002454e+04 2.373250e+03 2.373250e+03 -1.587690e+04 1.329555e+04 1.329555e+04 7.622111e+03 7.622111e+03 -6.039047e+03 3.460733e+02 -1.210878e+04 -1.401963e+04 1.817186e+04 1.817186e+04 1.817186e+04 -3.264363e+04 -1.258051e+03 4.082569e+03 1.725519e+04 -9.022749e+03 -3.287002e+04 -2.704542e+04 6.930060e+03 -2.102525e+04 4.561272e+02 4.561272e+02 -9.444604e+02 1.388808e+04 1.388808e+04 -6.162712e+03 -6.162712e+03 -8.593201e+03 -5.972381e+04 3.113143e+03 9.310231e+03 1.179057e+04 2.269002e+04 1.905046e+04 9.459493e+03 1.127447e+03 5.309142e+03 1.580472e+04 -1.225849e+04 -1.533932e+04 -1.828781e+04 -2.155095e+04 -2.523033e+04 -2.733548e+04 -2.933109e+04 -3.250109e+04 -3.570651e+04 -3.731231e+04 -3.666237e+04 -3.499847e+04 -3.395553e+04 -3.916947e+04 -4.135284e+04 -4.538458e+04 -4.364980e+04 -3.873209e+04 -3.969923e+04 -4.256002e+04 -4.195109e+04 -3.680506e+04 -3.912055e+04 -4.386905e+04 -3.820931e+04 -3.312036e+04 -3.058145e+04 -3.694852e+04 -3.960842e+04 -1.983850e+04 -2.175991e+04 -1.974614e+04 -1.864735e+04 -2.273576e+04 -2.346881e+04 -2.721092e+04 -1.481514e+04 -1.550464e+04 -1.690296e+04 1.736789e+03 -8.396756e+02 -8.803560e+03 -4.446977e+03 -7.465492e+03 -1.468447e+04 1.208870e+03 -5.592719e+03 -5.491781e+03 -2.918043e+03 -1.401218e+04 -5.476773e+02 -6.625755e+03 -1.861599e+04 -8.651574e+03 -5.030403e+03 -1.002312e+04 -1.187250e+04 -3.089568e+04 -1.929589e+04 -1.232405e+04 1.442955e+04 1.176718e+04 -1.202601e+03 -1.835988e+04 -2.823487e+04 -2.029893e+04 -4.223052e+04 -3.295418e+04 -3.637829e+04 -1.179798e+04 4.669868e+03 6.654774e+02 2.807089e+03 -5.194490e+03 1.873394e+01 -1.623500e+04 -3.773819e+04 -1.829270e+05 -3.725426e+05 -3.136498e+05 -2.684848e+05 -2.684848e+05 -2.319790e+05 -2.196425e+05 -2.147551e+05 -2.109570e+05 -2.109570e+05 -2.055456e+05 -1.930314e+05 -1.881001e+05 -1.841856e+05 -1.828250e+05 -1.765611e+05 -1.745747e+05 -1.701188e+05 -1.592717e+05 -1.553331e+05 -1.506886e+05 -1.439514e+05 -1.408553e+05 -1.375722e+05 -1.316284e+05 -1.316284e+05 -1.268548e+05 -1.203025e+05 -1.184708e+05 -1.146355e+05 -1.116910e+05 -1.078767e+05 -1.025961e+05 -9.737263e+04 -9.592578e+04 -9.362476e+04 -8.856594e+04 -8.675050e+04 -7.992959e+04 -7.845184e+04 -7.575453e+04 -7.272103e+04 -7.114661e+04 -6.511539e+04 -6.415692e+04 -6.000525e+04 -5.714231e+04 -5.511207e+04 -5.057347e+04 -4.956972e+04 -4.417903e+04 -4.417903e+04 -4.147939e+04 -3.756072e+04 -3.242371e+04 -3.242371e+04 -2.828155e+04 -2.461487e+04 -2.461487e+04 -2.124186e+04 -1.802817e+04 -1.600426e+04 -1.218350e+04 -1.218350e+04 -7.731506e+03 -7.731506e+03 -5.158071e+03 -2.837721e+03 3.460733e+02 2.373250e+03 4.082569e+03 8.249852e+03 8.249852e+03 1.122341e+04 1.328881e+04 1.525760e+04 1.830666e+04 1.830666e+04 -4.672458e+03 -4.672458e+03 -4.672458e+03 -1.341302e+03 6.048887e+04 6.048887e+04 6.048887e+04 2.579437e+04 2.579437e+04 2.579437e+04 3.551085e+04 -3.659170e+04 -3.659170e+04 -3.659170e+04 -4.419228e+04 -8.504354e+04 -8.504354e+04 -8.504354e+04 -9.422721e+04 -2.001395e+05 -2.001395e+05 -2.001395e+05 -1.980690e+05 -1.930949e+05 -1.748198e+05 -1.748198e+05 -1.748198e+05 -1.711083e+05 -3.185239e+02 -3.185239e+02 -3.185239e+02 -6.874740e+04 -6.874740e+04 -6.874740e+04 -6.520741e+04 -6.670894e+04 -2.705629e+05 -2.705629e+05 -2.705629e+05 -3.092772e+05 -2.628008e+04 -2.628008e+04 -2.628008e+04 -1.831523e+04 -1.831523e+04 -9.272413e+04 -9.272413e+04 -9.272413e+04 -9.747992e+04 -1.230378e+05 -9.775020e+04 -9.775020e+04 -9.775020e+04 -1.075469e+05 -1.680524e+05 -1.271851e+05 -1.271851e+05 -1.271851e+05 -1.350259e+05 -1.579847e+05 -1.579847e+05 -1.579847e+05 -1.792038e+04 -1.792038e+04 -6.054675e+04 -6.054675e+04 -1.228062e+05 -1.228062e+05 -1.228062e+05 -4.576418e+04 -1.571834e+05 -1.571834e+05 -1.571834e+05 -5.092159e+04 -2.849365e+05 -2.849365e+05 -4.192226e+05 -4.192226e+05 -2.662500e+05 -2.662500e+05 -2.662500e+05 -2.212847e+05 -2.212847e+05 -4.117357e+05 -4.117357e+05 -4.117357e+05 -3.834673e+05 -3.834673e+05 -1.450401e+04 -2.406029e+05 -2.406029e+05 -2.406029e+05 -2.353225e+05 -5.627202e+04 -5.627202e+04 -5.627202e+04 -5.933686e+04 -5.933686e+04 -1.026407e+05 -1.026407e+05 -1.026407e+05 -9.117917e+04 -9.117917e+04 -1.366229e+05 -1.366229e+05 -1.366229e+05 -1.397853e+05 -1.397853e+05 -1.611953e+05 -1.611953e+05 -1.611953e+05 -1.505634e+05 -1.505634e+05 -1.770161e+04 -1.770161e+04 -1.770161e+04 -1.608200e+04 -2.134450e+04 -2.134450e+04 -2.134450e+04 -2.917510e+04 -1.102989e+05 -1.102989e+05 -1.102989e+05 -1.195303e+05 -1.195303e+05 3.166005e+04 3.166005e+04 3.166005e+04 -3.006809e+04 -3.006809e+04 -3.006809e+04 -2.581180e+04 -2.581180e+04 1.493969e+04 1.493969e+04 1.493969e+04 3.181947e+04 3.181947e+04 -4.796589e+04 -4.796589e+04 -4.796589e+04 -3.692597e+04 -1.107909e+05 -1.107909e+05 -1.813430e+05 -1.813430e+05 -1.813430e+05 -5.393105e+04 -5.393105e+04 -4.212422e+04 -4.212422e+04 -3.529891e+04 -3.529891e+04 -3.529891e+04 -3.539383e+04 -3.026456e+05 -3.026456e+05 -3.026456e+05 -2.699087e+05 -3.408520e+04 -3.408520e+04 -2.876356e+05 -2.876356e+05 -2.876356e+05 -9.879007e+04 -9.879007e+04 -9.879007e+04 -1.087571e+05 -1.087571e+05 -4.220605e+05 -4.220605e+05 -4.220605e+05 -4.553472e+05 -4.553472e+05 -1.306703e+05 -1.306703e+05 -1.125199e+05 -1.329422e+05 -1.329422e+05 -1.329422e+05 -5.263264e+04 -5.263264e+04 -3.960842e+04 -1.131716e+05 -1.131716e+05 -1.131716e+05 -3.818874e+04 -9.501304e+04 -5.787333e+04 -1.342067e+05 -1.342067e+05 -1.342067e+05 -1.670117e+05 -1.670117e+05 -1.670117e+05 -1.251500e+05 -1.251500e+05 -1.251500e+05 -3.234049e+05 -3.234049e+05 -3.234049e+05 -2.727599e+05 -2.727599e+05 -