<?xml version="1.0"?>
 <VTKFile type="UnstructuredGrid" version="1.0" byte_order="LittleEndian" header_type="UInt64">
  <UnstructuredGrid>
    <FieldData>
     <DataArray type="Float64" Name="TimeValue" NumberOfTuples="1" format="ascii">
0.00037
     </DataArray>
    </FieldData>
   <Piece NumberOfPoints="3632" NumberOfCells="3379">
    <PointData>
     <DataArray type="Float64" Name="pointP" format="ascii">
1.012061e+06 1.012061e+06 1.009381e+06 1.008930e+06 1.006156e+06 1.003306e+06 9.960250e+05 9.911253e+05 9.855459e+05 9.784697e+05 9.731469e+05 9.663210e+05 9.587097e+05 9.516614e+05 9.456892e+05 9.352047e+05 9.288344e+05 9.207271e+05 9.169692e+05 9.084437e+05 9.014356e+05 8.924542e+05 8.831225e+05 8.736529e+05 8.616996e+05 8.557216e+05 8.465826e+05 8.376831e+05 8.275243e+05 8.166613e+05 8.087232e+05 7.976275e+05 7.869051e+05 7.750918e+05 7.637767e+05 7.553864e+05 7.459855e+05 7.340284e+05 7.252242e+05 7.160044e+05 7.045743e+05 6.925595e+05 6.809851e+05 6.680439e+05 6.575678e+05 6.467400e+05 6.334453e+05 6.192228e+05 6.071794e+05 5.947569e+05 5.820326e+05 5.694530e+05 5.576481e+05 5.442540e+05 5.287425e+05 5.169386e+05 5.012783e+05 4.902927e+05 4.776602e+05 4.648674e+05 4.526777e+05 4.395877e+05 4.268657e+05 4.160531e+05 4.053678e+05 3.932971e+05 3.801099e+05 3.691880e+05 3.569211e+05 3.451991e+05 3.319948e+05 3.225851e+05 3.110668e+05 2.998037e+05 2.877478e+05 2.784288e+05 2.666728e+05 2.558084e+05 2.453626e+05 2.349234e+05 2.229953e+05 2.130218e+05 2.023098e+05 1.928928e+05 1.828315e+05 1.725942e+05 1.626745e+05 1.535878e+05 1.431007e+05 1.343050e+05 1.257037e+05 1.170058e+05 1.084413e+05 1.005124e+05 9.245464e+04 8.457858e+04 7.728476e+04 7.071589e+04 6.343932e+04 5.545045e+04 4.916120e+04 4.313463e+04 3.785302e+04 3.181818e+04 2.629198e+04 2.115264e+04 1.703909e+04 1.281667e+04 8.399670e+03 5.094972e+03 1.352437e+03 1.536716e+02 -4.864549e+03 -9.606140e+03 -1.209151e+04 -1.319765e+04 -1.442706e+04 -1.702727e+04 -1.872824e+04 -2.126639e+04 -2.056792e+04 -2.031313e+04 -1.567813e+04 -1.795714e+04 -1.913039e+04 -1.735041e+04 -1.612798e+04 -1.023488e+04 -4.754149e+03 -1.106295e+04 -1.251916e+04 -9.565399e+03 -1.207963e+04 -5.489041e+03 -1.149258e+04 -1.066893e+04 -4.305199e+03 -7.984324e+03 -3.414421e+03 2.780472e+01 -5.191460e+03 -5.217465e+03 -5.067005e+03 -1.207695e+02 4.647995e+02 -1.254016e+04 -2.572337e+02 -5.970980e+03 -8.245457e+02 -7.817370e+03 -6.225255e+03 -3.442735e+03 -6.822812e+01 -3.040196e+03 -6.499749e+04 -1.137411e+05 -5.359148e+04 8.604283e+05 7.527709e+05 1.792821e+05 1.001762e+05 3.837090e+03 1.236882e+04 5.967916e+03 -3.417486e+03 -1.365660e+04 -1.104543e+03 -2.997618e+04 -3.030562e+04 -2.035414e+04 -1.172932e+04 -4.515667e+04 -3.458796e+04 -3.561598e+04 -1.477928e+04 -5.680707e+02 -1.507051e+04 -1.017893e+04 1.652440e+03 2.400053e+03 -9.833928e+04 1.105351e+05 1.105351e+05 1.105351e+05 1.280376e+05 1.280376e+05 1.280376e+05 1.319883e+05 1.284151e+05 1.513621e+05 1.393706e+05 1.745113e+05 1.745113e+05 1.745113e+05 1.743972e+05 5.032496e+04 5.032496e+04 5.032496e+04 5.049191e+04 5.648944e+04 4.750086e+05 4.750086e+05 4.750086e+05 4.701010e+05 4.787677e+05 4.787677e+05 4.787677e+05 4.613399e+05 8.420905e+04 8.420905e+04 8.420905e+04 9.064945e+04 9.595139e+04 9.641175e+04 -1.263987e+05 -1.263987e+05 -1.263987e+05 -1.407806e+05 -1.407806e+05 5.243322e+05 5.243322e+05 5.243322e+05 5.096747e+05 -1.775272e+05 -1.775272e+05 -1.775272e+05 -2.428793e+05 -2.428793e+05 8.688051e+05 8.688051e+05 8.688051e+05 2.719116e+05 2.719116e+05 2.719116e+05 2.765473e+05 1.768662e+05 1.768662e+05 1.768662e+05 5.522074e+05 5.522074e+05 5.522074e+05 5.714846e+05 -2.430785e+04 -2.430785e+04 -5.937039e+04 -5.937039e+04 3.204273e+05 3.204273e+05 3.267737e+05 5.553681e+05 5.553681e+05 5.553681e+05 5.915813e+05 5.915813e+05 -6.349987e+05 -6.349987e+05 -6.349987e+05 -5.554405e+05 -5.554405e+05 7.682608e+04 7.682608e+04 7.682608e+04 6.846066e+04 6.846066e+04 5.003085e+05 5.003085e+05 3.102702e+05 3.102702e+05 3.102702e+05 3.081786e+05 1.851947e+05 1.851947e+05 1.851947e+05 1.803142e+05 1.795265e+05 3.544378e+05 3.544378e+05 3.544378e+05 2.912550e+05 2.912550e+05 2.933094e+05 7.553864e+05 7.421423e+05 7.421423e+05 -3.561598e+04 -1.859345e+05 -1.859345e+05 1.763478e+05 -1.913039e+04 -2.583346e+04 1.643635e+05 1.258540e+05 1.258540e+05 1.258540e+05 1.322954e+05 7.217944e+04 1.266688e+05 1.266688e+05 1.266688e+05 1.379142e+05 1.379142e+05 6.428644e+04 6.428644e+04 6.428644e+04 6.881989e+04 4.182239e+04 4.182239e+04 4.182239e+04 1.297125e+05 4.494666e+05 4.418968e+05 4.248746e+05 4.861994e+05 4.861994e+05 1.466621e+05 1.466621e+05 1.466621e+05 1.528386e+05 3.288732e+05 3.288732e+05 3.288732e+05 3.364464e+05 3.364464e+05 3.248976e+05 -7.109328e+04 -7.109328e+04 -7.109328e+04 -7.455623e+04 -6.168424e+04 -6.168424e+04 -6.168424e+04 -7.565109e+04 -3.523520e+04 2.618619e+05 2.618619e+05 2.618619e+05 2.616724e+05 -2.185917e+05 -2.604173e+05 3.767394e+04 3.767394e+04 3.767394e+04 4.490773e+04 -1.191489e+05 -1.191489e+05 -1.191489e+05 -1.141163e+05 4.151229e+05 4.151229e+05 4.151229e+05 4.337500e+05 4.337500e+05 -1.960465e+05 -1.960465e+05 -1.960465e+05 -1.661023e+05 4.693228e+05 4.693228e+05 4.693228e+05 4.543480e+05 6.093531e+05 6.093531e+05 6.093531e+05 6.183514e+05 -4.483389e+04 -4.483389e+04 -3.406326e+04 1.905442e+05 1.905442e+05 2.106190e+05 2.106190e+05 2.106190e+05 1.408912e+05 1.408912e+05 1.408912e+05 1.378870e+05 -1.705448e+05 -1.705448e+05 -1.705448e+05 -1.882231e+05 -1.882231e+05 8.250829e+05 8.250829e+05 8.250829e+05 8.040127e+05 8.040127e+05 1.957059e+05 4.818723e+05 4.818723e+05 4.890051e+05 -1.269115e+05 -1.269115e+05 -1.269115e+05 -1.674222e+05 -6.723110e+04 -6.723110e+04 -1.281322e+05 -1.281322e+05 7.017592e+05 7.017592e+05 7.057746e+05 5.922374e+05 5.922374e+05 2.407337e+05 2.407337e+05 3.172760e+05 3.172760e+05 5.370878e+05 5.370878e+05 5.370878e+05 5.305617e+05 1.746417e+05 1.676088e+05 2.910159e+05 2.910159e+05 2.910159e+05 2.906677e+05 3.569422e+05 3.569422e+05 3.569422e+05 3.470631e+05 3.470631e+05 -8.719165e+05 -8.719165e+05 -8.719165e+05 -1.059149e+06 -1.059149e+06 3.210369e+05 3.293042e+05 8.577178e+05 8.577178e+05 8.577178e+05 8.503115e+05 -2.227677e+05 -2.227677e+05 -2.227677e+05 -3.740981e+05 -3.740981e+05 -2.065889e+05 -2.187519e+05 1.907769e+05 1.907769e+05 1.907769e+05 1.815985e+05 1.815985e+05 1.017765e+05 1.043949e+05 1.043949e+05 -1.008213e+05 -1.008213e+05 -1.008213e+05 -1.002073e+05 -1.002073e+05 -6.834584e+04 -6.834584e+04 -6.834584e+04 -7.515267e+04 -7.515267e+04 -1.706879e+05 -1.706879e+05 -1.711606e+05 -1.711606e+05 1.792810e+05 1.792810e+05 1.717009e+05 -1.575300e+05 -1.575300e+05 -1.601855e+05 -1.601855e+05 -7.758264e+04 -7.758264e+04 -7.758264e+04 -6.523701e+04 5.408280e+04 5.408280e+04 5.408280e+04 4.033829e+04 4.033829e+04 3.979252e+05 4.322431e+05 3.471324e+05 1.311918e+05 1.311918e+05 1.311918e+05 1.410008e+05 1.410008e+05 1.640885e+05 1.640885e+05 1.690626e+05 1.122639e+05 1.122639e+05 1.110155e+05 1.016904e+05 1.808040e+05 1.808040e+05 1.808040e+05 1.721851e+05 1.721851e+05 1.721851e+05 2.120452e+05 2.120452e+05 2.120452e+05 6.439792e+04 6.667854e+04 1.458315e+05 2.160433e+05 2.160433e+05 2.160433e+05 2.062478e+05 2.497076e+05 2.497076e+05 2.497076e+05 2.593040e+05 2.593040e+05 2.593040e+05 2.518789e+05 -5.923228e+04 -5.923228e+04 -5.923228e+04 5.798045e+04 5.798045e+04 5.798045e+04 2.041062e+05 2.041062e+05 2.041062e+05 4.106988e+05 4.106988e+05 4.078674e+05 -9.675123e+04 -5.356366e+04 -5.356366e+04 5.176296e+05 5.176296e+05 5.176296e+05 5.550369e+05 5.550369e+05 1.451393e+05 1.451393e+05 -2.664150e+05 -2.201520e+05 -2.604173e+05 6.078555e+05 6.078555e+05 6.078555e+05 5.896022e+05 -1.869131e+04 -1.869131e+04 -1.869131e+04 1.695670e+05 1.680396e+05 1.622451e+05 5.147633e+04 5.147633e+04 5.147633e+04 -1.135249e+05 -1.135249e+05 -1.135249e+05 -1.157269e+05 -1.222385e+05 1.928458e+05 1.928458e+05 1.928458e+05 7.596427e+05 7.596427e+05 7.596427e+05 7.542606e+05 3.521497e+05 3.521497e+05 3.521497e+05 3.439925e+05 7.917034e+05 7.917034e+05 7.917034e+05 2.996258e+05 9.024999e+04 9.024999e+04 1.076312e+05 1.076312e+05 1.076312e+05 1.057890e+05 1.082849e+05 -1.203763e+06 -1.203763e+06 -1.579176e+06 -2.593277e+05 -1.774520e+05 5.221674e+05 5.221674e+05 -5.488356e+04 -5.488356e+04 -5.488356e+04 -6.157998e+04 -1.301613e+05 -1.301613e+05 -1.301613e+05 -1.920517e+05 4.160531e+05 3.998708e+05 3.998708e+05 2.461325e+04 2.461325e+04 2.461325e+04 2.434618e+04 -1.382269e+05 5.361595e+04 5.361595e+04 5.650200e+04 5.790017e+05 5.790017e+05 5.790017e+05 8.349614e+05 8.349614e+05 7.810456e+05 7.810456e+05 7.810456e+05 8.157443e+05 8.749780e+05 8.749780e+05 8.749780e+05 8.683406e+05 8.683406e+05 8.959337e+05 7.239123e+05 7.239123e+05 9.809373e+04 -2.269188e+04 -2.269188e+04 -2.510568e+04 2.769418e+04 9.265977e+05 8.745069e+05 9.265977e+05 9.265977e+05 4.402391e+05 4.402391e+05 4.402391e+05 4.130742e+05 4.130742e+05 5.461460e+05 5.461460e+05 5.761581e+05 5.761581e+05 4.698079e+05 4.698079e+05 4.698079e+05 4.926061e+05 4.926061e+05 1.440424e+05 1.440424e+05 1.440424e+05 1.499729e+05 1.499729e+05 6.178993e+05 6.178993e+05 6.178993e+05 5.738454e+05 5.738454e+05 2.858384e+05 2.858384e+05 2.858384e+05 1.624703e+05 -2.245139e+05 -2.245139e+05 -2.245139e+05 -2.009827e+05 -2.009827e+05 -1.173662e+05 -1.173662e+05 -1.173662e+05 -9.789672e+04 -9.789672e+04 -3.587397e+04 -3.587397e+04 -3.587397e+04 5.824083e+04 5.824083e+04 4.674976e+05 4.674976e+05 4.674976e+05 1.746676e+05 1.746676e+05 1.746676e+05 1.837004e+05 1.837004e+05 3.840591e+04 5.744159e+04 -9.349707e+04 -9.349707e+04 -9.349707e+04 -1.391518e+05 1.612491e+05 1.612491e+05 1.584660e+05 1.030920e+05 1.030920e+05 1.037012e+05 1.037012e+05 1.118580e+05 1.182049e+05 2.166948e+05 1.923097e+05 2.166948e+05 2.166948e+05 1.513621e+05 1.513621e+05 1.239403e+05 2.516253e+05 2.600213e+05 5.358986e+05 5.358986e+05 5.358986e+05 5.270538e+05 5.388366e+05 2.622437e+04 2.622437e+04 2.622437e+04 1.952776e+04 -1.171668e+05 -8.805453e+04 -1.258101e+06 -1.258101e+06 -1.258101e+06 -1.052323e+06 4.724847e+05 4.880539e+05 4.923104e+05 1.093542e+05 1.093542e+05 1.071409e+05 -1.268842e+05 5.344078e+05 5.344078e+05 5.393007e+05 -4.775080e+03 -2.444615e+04 -5.079085e+04 -7.845211e+04 9.956047e+03 9.956047e+03 9.956047e+03 9.544290e+03 -8.710184e+04 -8.710184e+04 -8.710184e+04 -3.535243e+04 1.129297e+05 -2.572337e+02 -9.422815e+04 -9.422815e+04 3.351069e+05 3.351069e+05 3.351069e+05 4.731818e+03 7.878613e+05 7.878613e+05 3.663844e+04 3.663844e+04 3.663844e+04 4.164396e+05 5.678569e+04 5.678569e+04 1.954314e+04 -1.684418e+02 -1.684418e+02 -1.684418e+02 -3.316625e+03 -2.108140e+04 -3.982043e+04 -3.982043e+04 -6.908409e+04 -5.359148e+04 1.291750e+05 1.291750e+05 -8.291244e+04 -8.291244e+04 -8.291244e+04 -2.728185e+04 7.101114e+05 7.057911e+05 7.057911e+05 3.721039e+05 -1.025513e+05 -1.025513e+05 -1.171991e+05 7.603642e+05 7.603642e+05 7.044228e+05 5.001518e+05 -2.126639e+04 -3.313806e+04 -3.313806e+04 9.511618e+05 9.511618e+05 -3.351652e+04 8.272106e+05 8.272106e+05 -1.919237e+04 -1.919237e+04 -1.919237e+04 -1.802735e+04 -6.606377e+04 -6.606377e+04 -2.614205e+04 -2.614205e+04 -1.671862e+05 -1.992103e+05 2.756734e+05 2.774113e+05 4.647995e+02 -7.109408e+04 -7.109408e+04 1.535878e+05 1.563446e+05 1.563446e+05 -9.766764e+04 -9.766764e+04 -1.674558e+05 -1.674558e+05 6.273417e+05 1.649581e+05 9.598834e+05 9.598834e+05 9.575857e+05 9.786982e+05 9.786982e+05 7.045743e+05 6.727619e+05 4.243366e+05 4.243366e+05 4.243366e+05 8.550767e+05 8.550767e+05 8.550767e+05 8.541554e+05 -2.604779e+04 -2.604779e+04 4.576093e+05 -1.835983e+05 -1.835983e+05 5.052263e+02 -6.108478e+04 4.506570e+04 4.506570e+04 4.506570e+04 -2.629887e+04 -2.629887e+04 6.809851e+05 6.489807e+05 6.489807e+05 2.453626e+05 2.463134e+05 2.130218e+05 2.149988e+05 -3.874995e+05 9.180391e+05 9.180391e+05 -5.912036e+04 -5.912036e+04 -5.912036e+04 -7.301855e+04 8.519257e+05 -1.888832e+04 -1.017069e+04 -1.017069e+04 -1.179972e+04 -3.772158e+04 -3.772158e+04 -1.388506e+05 -1.388506e+05 -4.981714e+04 3.932971e+05 3.810018e+05 3.810018e+05 6.025818e+04 9.351094e+05 9.351094e+05 8.951411e+05 8.951411e+05 8.014388e+04 8.014388e+04 8.014388e+04 -7.051571e+04 -7.051571e+04 -7.051571e+04 9.248909e+04 9.248909e+04 7.038361e+05 9.274267e+05 9.105664e+05 8.593496e+05 6.819424e+05 8.997090e+05 -2.380070e+05 2.556553e+05 2.614219e+05 -8.092017e+04 -8.092017e+04 5.303536e+05 4.542412e+05 -3.876342e+04 -6.092176e+04 7.129351e+04 7.129351e+04 1.012061e+06 9.590611e+05 9.453766e+05 9.453766e+05 9.453766e+05 9.787520e+05 7.489318e+05 7.093028e+05 7.944815e+05 7.901060e+05 2.346667e+05 2.346667e+05 2.293969e+05 6.664802e+05 -1.766255e+05 -1.164302e+05 5.155117e+05 4.415003e+05 4.415003e+05 4.415003e+05 4.898696e+04 -1.859773e+04 -1.859773e+04 -1.859773e+04 9.675205e+05 7.688805e+05 8.747974e+05 8.222770e+05 -4.295725e+04 3.790678e+05 8.487019e+05 8.995873e+05 -3.266432e+05 -7.016524e+05 -7.016524e+05 3.122249e+05 4.202269e+05 -1.758364e+05 -1.685431e+05 6.880853e+05 6.410777e+05 6.410777e+05 -2.462590e+05 -2.462590e+05 -2.993516e+05 -2.993516e+05 -2.834131e+04 5.273379e+05 1.489832e+05 -3.625899e+05 8.085712e+05 7.828990e+05 4.368401e+04 1.393288e+05 1.366950e+05 1.366950e+05 7.463446e+05 7.463446e+05 7.135116e+05 7.135116e+05 3.398182e+04 4.099822e+04 -7.146355e+04 -7.146355e+04 -5.566714e+04 4.795872e+03 4.795872e+03 -1.090596e+03 -1.090596e+03 -4.968019e+04 -4.968019e+04 -1.033085e+06 8.043255e+05 8.043255e+05 6.432135e+05 6.432135e+05 6.432135e+05 5.733398e+05 -2.023717e+05 -2.023717e+05 -1.402445e+05 -1.402445e+05 -5.918268e+05 -4.627380e+05 6.429416e+05 8.286848e+05 -8.085808e+04 -5.510877e+05 -5.510877e+05 7.595630e+04 7.595630e+04 8.450036e+04 -5.166105e+05 -5.166105e+05 -7.459361e+04 -7.459361e+04 7.628050e+05 7.628050e+05 2.514210e+05 9.298444e+05 3.922530e+05 3.922530e+05 3.867006e+05 1.502535e+05 1.557755e+05 -2.684923e+05 -2.702431e+05 -3.658112e+04 8.880797e+05 -9.490684e+05 -8.731182e+03 -8.731182e+03 -8.731182e+03 1.199738e+05 1.199738e+05 1.199738e+05 2.020340e+05 2.297960e+04 2.297960e+04 2.297960e+04 1.518776e+04 9.311563e+05 8.954246e+05 5.131165e+05 4.833230e+05 4.833230e+05 9.577051e+04 9.577051e+04 9.577051e+04 5.420752e+05 -2.358518e+05 8.477995e+05 9.166019e+05 9.166019e+05 8.922000e+05 1.216707e+05 -9.683904e+04 -9.683904e+04 -1.092103e+05 -4.422706e+04 -4.422706e+04 8.374048e+05 -1.568305e+05 -3.601356e+04 -3.273253e+04 -9.600409e+04 2.251406e+05 2.320715e+05 8.299139e+05 5.323594e+04 5.323594e+04 5.323594e+04 -8.869388e+04 -8.869388e+04 6.149580e+05 5.831800e+05 5.831800e+05 7.525766e+05 7.319393e+05 -2.081998e+05 -2.099362e+05 7.505650e+05 7.505650e+05 7.505650e+05 7.388492e+05 -1.974753e+05 -1.974753e+05 -1.713232e+05 -5.314633e+05 -5.314633e+05 2.581796e+05 2.581796e+05 2.581796e+05 2.641224e+05 -4.209781e+04 7.569926e+05 7.569926e+05 7.569926e+05 7.654527e+05 8.223920e+05 -1.452256e+05 -1.452256e+05 -1.479910e+05 -1.479910e+05 -2.407576e+05 6.161119e+05 6.161119e+05 8.358452e+04 7.755767e+04 5.361079e+05 5.361079e+05 -1.505448e+05 -1.581018e+05 7.263084e+05 8.745069e+05 8.540813e+05 -5.384787e+04 -5.444127e+04 8.187818e+05 2.460695e+04 2.460695e+04 2.356403e+04 2.356403e+04 -5.880949e+04 5.522084e+04 6.241415e+04 4.483440e+05 -2.539092e+04 -1.729872e+05 -1.439114e+05 6.038105e+05 6.038105e+05 8.598388e+05 8.598388e+05 8.598388e+05 8.255971e+05 -4.180411e+05 -4.180411e+05 -5.200939e+05 2.523568e+05 2.455100e+05 4.174045e+05 -8.382565e+05 -1.271635e+06 -1.271635e+06 -1.271635e+06 -1.111331e+06 5.097728e+03 1.009381e+06 7.236097e+05 6.772783e+05 6.772783e+05 -3.539450e+05 -3.539450e+05 -3.539450e+05 -4.181441e+05 8.039569e+05 8.039569e+05 6.815860e+05 6.815860e+05 6.636956e+05 4.864450e+05 3.535883e+05 8.070741e+05 -2.201316e+04 -2.834666e+04 8.147172e+05 8.059222e+05 1.572199e+05 3.794678e+05 3.794678e+05 3.794678e+05 3.915836e+05 -3.224245e+05 3.104391e+04 3.173067e+04 -5.528686e+05 -4.913767e+05 1.087708e+05 1.132860e+05 -9.914496e+04 -9.914496e+04 4.300633e+05 -6.381085e+04 -6.381085e+04 -5.617480e+04 -8.081525e+04 -8.081525e+04 9.581203e+03 -2.787381e+05 -2.787381e+05 -3.248466e+05 6.713815e+05 7.794777e+05 7.794777e+05 -9.370137e+03 -8.541533e+03 -8.541533e+03 2.862043e+05 -4.213742e+05 -4.626499e+05 -3.354802e+05 6.035718e+05 6.035718e+05 1.358569e+05 -4.392313e+04 2.788310e+05 2.700305e+05 2.433210e+05 6.018353e+05 6.018353e+05 3.947610e+05 3.947610e+05 3.947610e+05 2.327057e+05 2.308396e+05 5.084162e+05 5.026073e+05 5.026073e+05 1.397928e+05 1.320914e+05 1.320914e+05 3.159141e+05 2.122326e+05 2.203401e+05 7.214041e+05 7.105489e+05 7.105489e+05 7.105489e+05 7.349290e+05 -4.321189e+05 -1.345644e+05 2.391679e+03 7.888504e+03 -9.552299e+04 -9.552299e+04 -9.552299e+04 6.075920e+04 6.075920e+04 6.075920e+04 6.254648e+04 7.151222e+04 -3.851579e+05 -2.056689e+05 -1.874759e+05 4.010034e+04 4.010034e+04 -2.627245e+05 -1.847565e+05 -1.752305e+05 -1.752305e+05 2.360327e+04 -6.573003e+04 -6.573003e+04 -7.006056e+04 4.540652e+05 4.540652e+05 4.394187e+05 -2.390692e+04 -2.390692e+04 1.728991e+05 -1.339169e+05 -1.339169e+05 -1.436893e+05 -1.436893e+05 -2.053232e+05 -2.053232e+05 -2.053232e+05 6.870249e+05 6.501160e+05 6.501160e+05 -2.263290e+05 -2.263290e+05 -2.263290e+05 -3.879882e+05 -4.033577e+05 4.995189e+04 6.921847e+05 6.921847e+05 6.550035e+05 6.272692e+05 6.272692e+05 6.272692e+05 3.351034e+05 3.351034e+05 3.313158e+05 2.968695e+05 2.968695e+05 3.053638e+05 -3.174188e+05 -1.918540e+05 -1.918540e+05 7.591244e+05 7.166242e+05 -4.120203e+04 -4.120203e+04 -4.120203e+04 8.054246e+05 -1.587078e+05 -1.587078e+05 -1.526172e+05 -1.526172e+05 -2.425168e+05 -2.425168e+05 -2.014800e+05 -2.014800e+05 -2.087381e+05 -2.087381e+05 -3.537735e+05 2.543242e+05 2.501527e+05 -3.083929e+04 5.535277e+05 5.535277e+05 5.535277e+05 6.156204e+04 3.821323e+05 -2.596953e+05 3.374763e+05 7.664731e+05 -8.772161e+04 4.131395e+05 4.131395e+05 7.716820e+05 7.240795e+05 7.240795e+05 2.803883e+05 2.807907e+05 7.115429e+05 7.115429e+05 6.649204e+05 -1.727797e+05 -1.727797e+05 8.004160e+04 1.328010e+05 6.251480e+05 1.973504e+05 7.559423e+05 7.007266e+05 7.007266e+05 -4.517703e+04 3.877665e+04 1.572183e+04 6.893983e+05 7.162249e+05 -2.125902e+05 -2.125902e+05 -8.239216e+04 -8.239216e+04 1.472979e+05 -2.034082e+05 -2.052195e+05 -2.052195e+05 6.273062e+05 -5.537977e+04 -4.914276e+04 1.475087e+04 1.475087e+04 1.475087e+04 4.872964e+03 4.872964e+03 3.748199e+05 5.808742e+05 6.754965e+05 4.709075e+05 4.709075e+05 2.249426e+05 2.249426e+05 2.263773e+05 2.103729e+05 2.103729e+05 6.950521e+05 6.950521e+05 6.950521e+05 6.428784e+05 6.428784e+05 2.967292e+05 2.967292e+05 3.076499e+05 3.705285e+05 3.402999e+05 3.402999e+05 3.402999e+05 -1.248557e+05 3.972928e+05 3.767332e+05 3.767332e+05 -1.228276e+05 -1.117711e+05 -2.201520e+05 -2.048821e+05 6.319247e+05 2.786248e+05 2.656987e+05 7.166242e+05 4.825805e+05 4.825805e+05 4.514384e+05 4.514384e+05 5.111831e+05 5.111824e+05 6.297980e+05 -1.901811e+05 -1.374077e+05 -1.374077e+05 -1.404167e+05 -2.253292e+05 5.423387e+05 -2.188873e+05 7.089596e+04 -1.064604e+05 6.701906e+05 5.954431e+05 5.954431e+05 5.754263e+05 5.754263e+05 2.931480e+03 1.209755e+05 1.209755e+05 1.209755e+05 -4.314926e+04 5.233912e+05 1.691493e+05 -1.757682e+05 -1.804356e+05 -6.054463e+04 -2.114580e+05 -1.528095e+05 -1.674087e+05 -1.969667e+05 -1.969667e+05 -1.969667e+05 3.930460e+05 -3.901662e+04 -2.207187e+05 4.547070e+05 4.547070e+05 4.371963e+05 2.193043e+05 7.386034e+04 7.386034e+04 5.765625e+05 3.144326e+05 3.205805e+05 -2.166642e+05 2.082148e+05 2.082148e+05 2.257174e+05 -2.450222e+05 -1.953892e+05 -1.953892e+05 -2.073958e+05 1.264208e+05 1.264208e+05 1.264208e+05 2.476618e+05 2.673283e+04 1.780459e+05 1.038109e+04 3.535892e+03 3.535892e+03 -4.981554e+04 -9.803499e+04 3.796085e+05 3.796085e+05 4.951104e+05 -5.548770e+04 -5.548770e+04 -5.548770e+04 -5.906390e+04 6.152027e+05 2.738412e+05 5.849366e+05 5.348911e+05 1.027573e+05 3.506555e+05 3.570125e+05 5.793052e+05 2.592203e+05 2.552323e+05 -2.185917e+05 2.467410e+05 4.549049e+05 4.549049e+05 4.549049e+05 6.593333e+05 6.295112e+05 4.391705e+05 5.368656e+05 6.593333e+05 -1.765835e+05 -1.996180e+05 -8.396667e+04 3.095594e+05 2.829774e+05 1.936275e+05 -1.492568e+05 -1.492568e+05 -1.492568e+05 -4.812990e+04 5.413662e+05 5.413662e+05 5.716646e+05 5.716646e+05 2.265040e+05 -1.780893e+05 5.157866e+05 8.769724e+04 8.769724e+04 8.769724e+04 4.053510e+04 4.992376e+05 4.992376e+05 8.108505e+04 1.797191e+05 3.154813e+05 -1.497828e+05 4.461240e+05 4.461240e+05 4.461240e+05 -1.580438e+05 -1.580438e+05 -1.580438e+05 6.522175e+05 1.744692e+05 5.351641e+05 5.351641e+05 -1.777816e+05 -1.777816e+05 -1.777816e+05 -1.708731e+05 2.301098e+04 2.301098e+04 2.301098e+04 3.833177e+05 3.833177e+05 3.833177e+05 4.281058e+05 1.062227e+05 1.038323e+05 1.245131e+05 1.245131e+05 1.245131e+05 5.386238e+04 5.856188e+04 5.856188e+04 3.774496e+05 3.440462e+05 6.353468e+05 1.007720e+05 9.535589e+04 -1.263194e+05 -9.977862e+04 2.502335e+05 -6.132335e+04 -1.359496e+05 -1.359496e+05 -1.446574e+05 4.678835e+05 2.237189e+05 -5.092614e+04 -5.817487e+04 7.573028e+04 2.470840e+05 -7.416517e+03 -7.416517e+03 3.477672e+05 3.767854e+05 3.598098e+05 -7.039245e+04 1.717857e+05 4.726545e+05 -1.204388e+05 -1.204388e+05 -1.554367e+05 -1.554367e+05 3.918336e+05 3.918336e+05 3.918336e+05 3.656277e+05 3.656277e+05 2.412079e+05 4.197310e+05 4.079306e+05 4.079306e+05 -5.602371e+04 2.016834e+05 2.180625e+05 2.796561e+05 2.796561e+05 3.038760e+05 3.750304e+05 -1.166357e+05 -1.166357e+05 3.496467e+05 3.408990e+05 -1.263194e+05 -1.263194e+05 -6.522887e+04 -1.505718e+05 -1.505718e+05 -1.505718e+05 1.471370e+05 -7.442463e+04 -6.054986e+04 8.501664e+04 8.501664e+04 8.501664e+04 1.168812e+05 1.291930e+05 2.206414e+05 1.083544e+05 -5.362280e+04 2.767023e+05 2.767023e+05 2.767023e+05 2.639137e+05 -1.552565e+05 3.513690e+05 3.513690e+05 3.513690e+05 3.124747e+05 -1.002541e+05 3.269131e+05 3.269131e+05 1.519817e+05 -1.035057e+05 -1.035057e+05 -1.035057e+05 -1.058178e+05 -1.058178e+05 4.415014e+05 4.024225e+05 4.024225e+05 -8.396718e+04 -2.354059e+05 -2.354059e+05 2.550407e+05 -7.074832e+04 -7.074832e+04 -7.074832e+04 -1.764696e+04 -1.764696e+04 -1.764696e+04 1.214165e+05 1.214165e+05 1.312201e+05 4.504804e+04 -8.942988e+04 -8.942988e+04 1.151673e+05 1.825879e+05 1.825879e+05 1.657911e+05 1.657911e+05 3.191403e+05 3.529845e+04 2.697716e+04 2.697716e+04 -6.584286e+04 -6.584286e+04 8.181994e+04 8.181994e+04 1.015901e+05 2.321591e+05 2.321591e+05 2.156119e+05 2.156119e+05 5.294981e+04 2.380618e+05 3.629309e+05 3.515030e+05 3.515030e+05 2.204689e+05 1.571007e+05 7.517623e+04 3.276170e+05 3.276170e+05 2.359112e+05 3.471324e+05 3.471324e+05 -6.772407e+04 -6.772407e+04 2.598578e+05 3.037177e+05 3.037177e+05 3.037177e+05 2.816504e+05 2.816504e+05 3.243369e+05 1.850483e+05 1.850483e+05 2.876107e+05 2.876107e+05 2.706745e+05 7.568543e+04 1.479989e+05 -2.902830e+05 1.838237e+05 3.132887e+05 3.132887e+05 -1.069505e+04 -1.069505e+04 1.191063e+05 1.191063e+05 5.407382e+03 1.643819e+05 1.643819e+05 1.484330e+05 4.898628e+04 4.898628e+04 2.505967e+05 2.505967e+05 2.332617e+05 1.896765e+05 1.896765e+05 8.410027e+04 8.410027e+04 1.360290e+05 1.360290e+05 1.071731e+05 1.095912e+05 1.095912e+05 2.044688e+04 4.193876e+04 7.681437e+04 1.816496e+05 1.828870e+05 2.920590e+05 2.854144e+05 2.491416e+05 2.491416e+05 2.879813e+05 5.192114e+04 5.192114e+04 6.427673e+04 2.076347e+05 2.835530e+05 3.031218e+05 3.031218e+05 1.039650e+05 1.039650e+05 2.548305e+05 2.796060e+05 7.702123e+04 7.702123e+04 2.372894e+05 2.372894e+05 5.810360e+05 3.869182e+04 3.869182e+04 3.869182e+04 -3.006836e+05 -3.006836e+05 2.332046e+05 2.176883e+05 1.906798e+05 1.906798e+05 2.111190e+05 2.111190e+05 2.308895e+05 5.820728e+04 2.679258e+05 2.414287e+05 1.553448e+05 1.310687e+05 1.802997e+05 1.524746e+05 2.063298e+05 8.693210e+04 1.410056e+05 1.701348e+05 1.553024e+05 1.613738e+05 1.993005e+05 1.923097e+05 1.084947e+05 1.084947e+05 1.542904e+05 1.470570e+05 1.784738e+05 9.679912e+04 1.034448e+05 1.615531e+05 1.615531e+05 1.598950e+05 1.598950e+05 1.214544e+05 1.214544e+05 1.499846e+05 1.375815e+05 1.375815e+05 1.375815e+05 1.377002e+05 1.377002e+05 6.302588e+04 6.302588e+04 6.302588e+04 1.369821e+04 1.369821e+04 -3.922807e+04 -3.266367e+04 8.824854e+04 -3.922807e+04 -3.922807e+04 8.239094e+04 -6.726825e+04 2.515017e+04 3.373446e+04 4.453930e+04 4.538546e+04 6.751434e+04 6.933906e+04 8.407603e+04 8.407603e+04 1.180113e+05 -5.883660e+04 8.824854e+04 2.794497e+05 2.181494e+05 1.495086e+05 2.793507e+05 2.793507e+05 2.488590e+05 2.466436e+05 2.488590e+05 1.207699e+05 2.328357e+05 1.334224e+05 9.474798e+04 9.722902e+04 9.722902e+04 1.402765e+05 1.012061e+06 1.012061e+06 1.009381e+06 1.008930e+06 1.006156e+06 1.003306e+06 9.960250e+05 9.911253e+05 9.855459e+05 9.784697e+05 9.731469e+05 9.663210e+05 9.587097e+05 9.516614e+05 9.456892e+05 9.352047e+05 9.288344e+05 9.207271e+05 9.169692e+05 9.084437e+05 9.014356e+05 8.924542e+05 8.831225e+05 8.736529e+05 8.616996e+05 8.557216e+05 8.465826e+05 8.376831e+05 8.275243e+05 8.166613e+05 8.087232e+05 7.976275e+05 7.869051e+05 7.750918e+05 7.637767e+05 7.553864e+05 7.459855e+05 7.340284e+05 7.252242e+05 7.160044e+05 7.045743e+05 6.925595e+05 6.809851e+05 6.680439e+05 6.575678e+05 6.467400e+05 6.334453e+05 6.192228e+05 6.071794e+05 5.947569e+05 5.820326e+05 5.694530e+05 5.576481e+05 5.442540e+05 5.287425e+05 5.169386e+05 5.012783e+05 4.902927e+05 4.776602e+05 4.648674e+05 4.526777e+05 4.395877e+05 4.268657e+05 4.160531e+05 4.053678e+05 3.932971e+05 3.801099e+05 3.691880e+05 3.569211e+05 3.451991e+05 3.319948e+05 3.225851e+05 3.110668e+05 2.998037e+05 2.877478e+05 2.784288e+05 2.666728e+05 2.558084e+05 2.453626e+05 2.349234e+05 2.229953e+05 2.130218e+05 2.023098e+05 1.928928e+05 1.828315e+05 1.725942e+05 1.626745e+05 1.535878e+05 1.431007e+05 1.343050e+05 1.257037e+05 1.170058e+05 1.084413e+05 1.005124e+05 9.245464e+04 8.457858e+04 7.728476e+04 7.071589e+04 6.343932e+04 5.545045e+04 4.916120e+04 4.313463e+04 3.785302e+04 3.181818e+04 2.629198e+04 2.115264e+04 1.703909e+04 1.281667e+04 8.399670e+03 5.094972e+03 1.352437e+03 1.536716e+02 -4.864549e+03 -9.606140e+03 -1.209151e+04 -1.319765e+04 -1.442706e+04 -1.702727e+04 -1.872824e+04 -2.126639e+04 -2.056792e+04 -2.031313e+04 -1.567813e+04 -1.795714e+04 -1.913039e+04 -1.735041e+04 -1.612798e+04 -1.023488e+04 -4.754149e+03 -1.106295e+04 -1.251916e+04 -9.565399e+03 -1.207963e+04 -5.489041e+03 -1.149258e+04 -1.066893e+04 -4.305199e+03 -7.984324e+03 -3.414421e+03 2.780472e+01 -5.191460e+03 -5.217465e+03 -5.067005e+03 -1.207695e+02 4.647995e+02 -1.254016e+04 -2.572337e+02 -5.970980e+03 -8.245457e+02 -7.817370e+03 -6.225255e+03 -3.442735e+03 -6.822812e+01 -3.040196e+03 -6.499749e+04 -1.137411e+05 -5.359148e+04 8.604283e+05 7.527709e+05 1.792821e+05 1.001762e+05 3.837090e+03 1.236882e+04 5.967916e+03 -3.417486e+03 -1.365660e+04 -1.104543e+03 -2.997618e+04 -3.030562e+04 -2.035414e+04 -1.172932e+04 -4.515667e+04 -3.458796e+04 -3.561598e+04 -1.477928e+04 -5.680707e+02 -1.507051e+04 -1.017893e+04 1.652440e+03 2.400053e+03 -9.833928e+04 1.105351e+05 1.105351e+05 1.105351e+05 1.280376e+05 1.280376e+05 1.280376e+05 1.319883e+05 1.284151e+05 1.513621e+05 1.393706e+05 1.745113e+05 1.745113e+05 1.745113e+05 1.743972e+05 5.032496e+04 5.032496e+04 5.032496e+04 5.049191e+04 5.648944e+04 4.750086e+05 4.750086e+05 4.750086e+05 4.701010e+05 4.787677e+05 4.787677e+05 4.787677e+05 4.613399e+05 8.420905e+04 8.420905e+04 8.420905e+04 9.064945e+04 9.595139e+04 9.641175e+04 -1.263987e+05 -1.263987e+05 -1.263987e+05 -1.407806e+05 -1.407806e+05 5.243322e+05 5.243322e+05 5.243322e+05 5.096747e+05 -1.775272e+05 -1.775272e+05 -1.775272e+05 -2.428793e+05 -2.428793e+05 8.688051e+05 8.688051e+05 8.688051e+05 2.719116e+05 2.719116e+05 2.719116e+05 2.765473e+05 1.768662e+05 1.768662e+05 1.768662e+05 5.522074e+05 5.522074e+05 5.522074e+05 5.714846e+05 -2.430785e+04 -2.430785e+04 -5.937039e+04 -5.937039e+04 3.204273e+05 3.204273e+05 3.267737e+05 5.553681e+05 5.553681e+05 5.553681e+05 5.915813e+05 5.915813e+05 -6.349987e+05 -6.349987e+05 -6.349987e+05 -5.554405e+05 -5.554405e+05 7.682608e+04 7.682608e+04 7.682608e+04 6.846066e+04 6.846066e+04 5.003085e+05 5.003085e+05 3.102702e+05 3.102702e+05 3.102702e+05 3.081786e+05 1.851947e+05 1.851947e+05 1.851947e+05 1.803142e+05 1.795265e+05 3.544378e+05 3.544378e+05 3.544378e+05 2.912550e+05 2.912550e+05 2.933094e+05 7.553864e+05 7.421423e+05 7.421423e+05 -3.561598e+04 -1.859345e+05 -1.859345e+05 1.763478e+05 -1.913039e+04 -2.583346e+04 1.643635e+05 1.258540e+05 1.258540e+05 1.258540e+05 1.322954e+05 7.217944e+04 1.266688e+05 1.266688e+05 1.266688e+05 1.379142e+05 1.379142e+05 6.428644e+04 6.428644e+04 6.428644e+04 6.881989e+04 4.182239e+04 4.182239e+04 4.182239e+04 1.297125e+05 4.494666e+05 4.418968e+05 4.248746e+05 4.861994e+05 4.861994e+05 1.466621e+05 1.466621e+05 1.466621e+05 1.528386e+05 3.288732e+05 3.288732e+05 3.288732e+05 3.364464e+05 3.364464e+05 3.248976e+05 -7.109328e+04 -7.109328e+04 -7.109328e+04 -7.455623e+04 -6.168424e+04 -6.168424e+04 -6.168424e+04 -7.565109e+04 -3.523520e+04 2.618619e+05 2.618619e+05 2.618619e+05 2.616724e+05 -2.185917e+05 -2.604173e+05 3.767394e+04 3.767394e+04 3.767394e+04 4.490773e+04 -1.191489e+05 -1.191489e+05 -1.191489e+05 -1.141163e+05 4.151229e+05 4.151229e+05 4.151229e+05 4.337500e+05 4.337500e+05 -1.960465e+05 -1.960465e+05 -1.960465e+05 -1.661023e+05 4.693228e+05 4.693228e+05 4.693228e+05 4.543480e+05 6.093531e+05 6.093531e+05 6.093531e+05 6.183514e+05 -4.483389e+04 -4.483389e+04 -3.406326e+04 1.905442e+05 1.905442e+05 2.106190e+05 2.106190e+05 2.106190e+05 1.408912e+05 1.408912e+05 1.408912e+05 1.378870e+05 -1.705448e+05 -1.705448e+05 -1.705448e+05 -1.882231e+05 -1.882231e+05 8.250829e+05 8.250829e+05 8.250829e+05 8.040127e+05 8.040127e+05 1.957059e+05 4.818723e+05 4.818723e+05 4.890051e+05 -1.269115e+05 -1.269115e+05 -1.269115e+05 -1.674222e+05 -6.723110e+04 -6.723110e+04 -1.281322e+05 -1.281322e+05 7.017592e+05 7.017592e+05 7.057746e+05 5.922374e+05 5.922374e+05 2.407337e+05 2.407337e+05 3.172760e+05 3.172760e+05 5.