<?xml version="1.0"?>
 <VTKFile type="UnstructuredGrid" version="1.0" byte_order="LittleEndian" header_type="UInt64">
  <UnstructuredGrid>
    <FieldData>
     <DataArray type="Float64" Name="TimeValue" NumberOfTuples="1" format="ascii">
5e-05
     </DataArray>
    </FieldData>
   <Piece NumberOfPoints="3632" NumberOfCells="3379">
    <PointData>
     <DataArray type="Float64" Name="pointP" format="ascii">
2.276433e+06 2.276433e+06 2.268651e+06 2.258102e+06 2.253332e+06 2.250150e+06 2.237771e+06 2.226764e+06 2.219609e+06 2.214978e+06 2.201926e+06 2.189999e+06 2.178136e+06 2.165869e+06 2.156801e+06 2.138323e+06 2.129764e+06 2.119331e+06 2.106154e+06 2.091034e+06 2.081522e+06 2.064916e+06 2.050420e+06 2.034516e+06 2.015106e+06 1.995760e+06 1.979559e+06 1.966785e+06 1.944249e+06 1.921714e+06 1.910427e+06 1.886359e+06 1.864520e+06 1.837110e+06 1.814319e+06 1.803558e+06 1.780808e+06 1.755916e+06 1.729546e+06 1.710988e+06 1.690069e+06 1.662970e+06 1.643409e+06 1.614038e+06 1.589439e+06 1.566676e+06 1.541473e+06 1.514277e+06 1.479625e+06 1.459995e+06 1.434027e+06 1.407825e+06 1.384193e+06 1.353513e+06 1.317458e+06 1.292649e+06 1.263152e+06 1.238337e+06 1.209526e+06 1.181390e+06 1.153961e+06 1.125493e+06 1.091877e+06 1.066953e+06 1.038079e+06 1.006188e+06 9.693869e+05 9.426745e+05 9.153692e+05 8.858425e+05 8.526729e+05 8.238711e+05 7.929745e+05 7.623887e+05 7.268633e+05 6.976746e+05 6.652384e+05 6.326510e+05 6.033687e+05 5.735970e+05 5.346341e+05 5.021085e+05 4.695349e+05 4.376841e+05 4.086665e+05 3.771530e+05 3.464525e+05 3.145249e+05 2.785758e+05 2.448437e+05 2.157567e+05 1.816389e+05 1.533788e+05 1.216667e+05 8.842735e+04 5.962001e+04 2.593035e+04 -5.669133e+03 -3.735982e+04 -7.684699e+04 -1.060763e+05 -1.360526e+05 -1.630793e+05 -2.008818e+05 -2.304684e+05 -2.583810e+05 -2.876682e+05 -3.203816e+05 -3.499919e+05 -3.772546e+05 -4.048002e+05 -4.345951e+05 -4.629155e+05 -4.995374e+05 -5.294386e+05 -5.624396e+05 -5.911487e+05 -6.165924e+05 -6.483843e+05 -6.769865e+05 -7.041792e+05 -7.309585e+05 -7.597146e+05 -7.854305e+05 -8.123053e+05 -8.413324e+05 -8.660818e+05 -8.942857e+05 -9.207495e+05 -9.420394e+05 -9.648588e+05 -9.973641e+05 -1.019567e+06 -1.044095e+06 -1.062841e+06 -1.090210e+06 -1.113758e+06 -1.132014e+06 -1.158224e+06 -1.177733e+06 -1.197907e+06 -1.225161e+06 -1.244552e+06 -1.266562e+06 -1.289076e+06 -1.305346e+06 -1.325802e+06 -1.343500e+06 -1.364840e+06 -1.376245e+06 -1.392938e+06 -1.413601e+06 -1.431238e+06 -1.447054e+06 -1.463551e+06 -1.479090e+06 -1.491109e+06 -1.511962e+06 -1.526000e+06 -1.539384e+06 -1.553072e+06 -1.569113e+06 -1.580813e+06 -1.592847e+06 -1.605325e+06 -1.614683e+06 -1.625110e+06 -1.634379e+06 -1.647244e+06 -1.654316e+06 -1.668834e+06 -1.679342e+06 -1.689285e+06 -1.697262e+06 -1.701451e+06 -1.710602e+06 -1.715379e+06 -1.720439e+06 -1.729004e+06 -1.734571e+06 -1.734740e+06 1.629705e+05 1.629705e+05 1.629705e+05 2.487902e+05 2.487902e+05 2.487902e+05 2.682144e+05 2.515692e+05 3.639672e+05 3.036661e+05 4.782533e+05 4.782533e+05 4.782533e+05 4.776488e+05 -1.343816e+05 -1.343816e+05 -1.343816e+05 -1.362062e+05 -1.053064e+05 1.626290e+06 1.626290e+06 1.626290e+06 1.621747e+06 1.603940e+06 1.603940e+06 1.603940e+06 1.565328e+06 1.062164e+04 1.062164e+04 1.062164e+04 4.321568e+04 6.926000e+04 7.049593e+04 -1.010293e+06 -1.010293e+06 -1.010293e+06 -1.058859e+06 -1.058859e+06 1.557526e+06 1.557526e+06 1.557526e+06 1.528291e+06 -1.299206e+06 -1.299206e+06 -1.299206e+06 -1.341770e+06 -1.341770e+06 2.174986e+06 2.174986e+06 2.174986e+06 7.213728e+05 7.213728e+05 7.213728e+05 7.400475e+05 4.197236e+05 4.197236e+05 4.197236e+05 1.436229e+06 1.436229e+06 1.436229e+06 1.439963e+06 -9.445898e+05 -9.445898e+05 -9.410964e+05 -9.410964e+05 8.341696e+05 8.341696e+05 8.592484e+05 1.485470e+06 1.485470e+06 1.485470e+06 1.514553e+06 1.514553e+06 -1.510910e+06 -1.510910e+06 -1.510910e+06 -1.470127e+06 -1.470127e+06 -1.013468e+04 -1.013468e+04 -1.013468e+04 -5.538590e+04 -5.538590e+04 1.675102e+06 1.675102e+06 8.782863e+05 8.782863e+05 8.782863e+05 8.854085e+05 4.235567e+05 4.235567e+05 4.235567e+05 4.115076e+05 4.140393e+05 9.440303e+05 9.440303e+05 9.440303e+05 7.702321e+05 7.702321e+05 7.830365e+05 1.803558e+06 1.811707e+06 1.811707e+06 -1.697262e+06 -1.672641e+06 -1.672641e+06 3.928970e+05 -8.123053e+05 -7.916626e+05 4.279009e+05 2.358296e+05 2.358296e+05 2.358296e+05 2.676146e+05 -2.940793e+04 2.340164e+05 2.340164e+05 2.340164e+05 2.884784e+05 2.884784e+05 -1.818979e+05 -1.818979e+05 -1.818979e+05 -1.379836e+05 -5.378921e+05 -5.378921e+05 -5.378921e+05 -5.470362e+05 1.571086e+06 1.558753e+06 1.512784e+06 1.673935e+06 1.673935e+06 3.156547e+05 3.156547e+05 3.156547e+05 3.460756e+05 1.070929e+06 1.070929e+06 1.070929e+06 1.108450e+06 1.108450e+06 1.075663e+06 -7.461799e+05 -7.461799e+05 -7.461799e+05 -7.669482e+05 -5.432789e+05 -5.432789e+05 -5.432789e+05 -5.039135e+05 -4.816894e+05 8.200222e+05 8.200222e+05 8.200222e+05 8.248471e+05 -1.382046e+06 -1.483659e+06 -2.230458e+05 -2.230458e+05 -2.230458e+05 -1.866591e+05 -9.727229e+05 -9.727229e+05 -9.727229e+05 -9.553327e+05 1.311445e+06 1.311445e+06 1.311445e+06 1.358988e+06 1.358988e+06 -1.180889e+06 -1.180889e+06 -1.180889e+06 -1.159380e+06 1.294349e+06 1.294349e+06 1.294349e+06 1.280364e+06 1.562834e+06 1.562834e+06 1.562834e+06 1.558724e+06 -7.534822e+05 -7.534822e+05 -7.555170e+05 4.493666e+05 4.493666e+05 5.331793e+05 5.331793e+05 5.331793e+05 2.718380e+05 2.718380e+05 2.718380e+05 2.580785e+05 -1.681995e+06 -1.681995e+06 -1.681995e+06 -1.688186e+06 -1.688186e+06 2.004833e+06 2.004833e+06 2.004833e+06 1.983815e+06 1.983815e+06 4.691046e+05 1.244298e+06 1.244298e+06 1.265847e+06 -1.709908e+06 -1.709908e+06 -1.709908e+06 -1.712150e+06 -1.449873e+06 -1.449873e+06 -1.429572e+06 -1.429572e+06 1.712618e+06 1.712618e+06 1.727672e+06 1.481269e+06 1.481269e+06 -1.526800e+06 -1.526800e+06 -1.506811e+06 -1.506811e+06 1.379631e+06 1.379631e+06 1.379631e+06 1.363881e+06 4.007263e+05 3.820986e+05 8.173498e+05 8.173498e+05 8.173498e+05 7.980536e+05 1.015478e+06 1.015478e+06 1.015478e+06 9.805147e+05 9.805147e+05 -1.592690e+06 -1.592690e+06 -1.592690e+06 -1.593433e+06 -1.593433e+06 8.943709e+05 9.260243e+05 2.145668e+06 2.145668e+06 2.145668e+06 2.141606e+06 -1.380653e+06 -1.380653e+06 -1.380653e+06 -1.417777e+06 -1.417777e+06 -1.377598e+06 -1.364558e+06 4.927566e+05 4.927566e+05 4.927566e+05 4.611881e+05 4.611881e+05 9.864675e+04 1.107366e+05 1.107366e+05 -9.154257e+05 -9.154257e+05 -9.154257e+05 -8.996355e+05 -8.996355e+05 -7.501570e+05 -7.501570e+05 -7.501570e+05 -7.783184e+05 -7.783184e+05 -1.240987e+06 -1.240987e+06 -1.197062e+06 -1.197062e+06 4.559515e+05 4.559515e+05 4.240505e+05 -1.145371e+06 -1.145371e+06 -1.155122e+06 -1.155122e+06 -7.876061e+05 -7.876061e+05 -7.876061e+05 -7.221207e+05 -1.441988e+05 -1.441988e+05 -1.441988e+05 -2.120045e+05 -2.120045e+05 1.430050e+06 1.548610e+06 1.256804e+06 2.635891e+05 2.635891e+05 2.635891e+05 3.118114e+05 3.118114e+05 4.269083e+05 4.269083e+05 4.511319e+05 1.696197e+05 1.696197e+05 1.631659e+05 1.180257e+05 5.077178e+05 5.077178e+05 5.077178e+05 4.615724e+05 4.615724e+05 4.615724e+05 6.592402e+05 6.592402e+05 6.592402e+05 -1.503369e+05 -1.123837e+05 3.287459e+05 6.699938e+05 6.699938e+05 6.699938e+05 6.236061e+05 8.364496e+05 8.364496e+05 8.364496e+05 8.364074e+05 8.364074e+05 8.364074e+05 8.087738e+05 -6.127022e+05 -6.127022e+05 -6.127022e+05 -1.231813e+05 -1.231813e+05 -1.231813e+05 5.821430e+05 5.821430e+05 5.821430e+05 1.326084e+06 1.326084e+06 1.331735e+06 -8.822904e+05 -5.976461e+05 -5.976461e+05 1.643122e+06 1.643122e+06 1.643122e+06 1.706152e+06 1.706152e+06 3.066098e+05 3.066098e+05 -1.578734e+06 -1.534883e+06 -1.483659e+06 1.871298e+06 1.871298e+06 1.871298e+06 1.844851e+06 -4.708471e+05 -4.708471e+05 -4.708471e+05 3.933341e+05 3.891954e+05 3.678476e+05 -1.510394e+05 -1.510394e+05 -1.510394e+05 -9.576038e+05 -9.576038e+05 -9.576038e+05 -9.667957e+05 -9.869956e+05 4.869206e+05 4.869206e+05 4.869206e+05 2.055965e+06 2.055965e+06 2.055965e+06 2.054494e+06 1.044349e+06 1.044349e+06 1.044349e+06 1.033387e+06 2.070094e+06 2.070094e+06 2.070094e+06 8.153656e+05 4.320804e+04 4.320804e+04 1.424034e+05 1.424034e+05 1.424034e+05 1.317964e+05 1.400281e+05 -1.651283e+06 -1.651283e+06 -1.633109e+06 -1.693996e+06 -1.696620e+06 1.427372e+06 1.427372e+06 -7.981298e+05 -7.981298e+05 -7.981298e+05 -7.812677e+05 -1.583198e+06 -1.583198e+06 -1.583198e+06 -1.566924e+06 1.066953e+06 1.067163e+06 1.067163e+06 -2.623110e+05 -2.623110e+05 -2.623110e+05 -2.702830e+05 -1.463949e+06 -9.318065e+04 -9.318065e+04 -8.935732e+04 1.561215e+06 1.561215e+06 1.561215e+06 2.021348e+06 2.021348e+06 1.929863e+06 1.929863e+06 1.929863e+06 1.951071e+06 2.104982e+06 2.104982e+06 2.104982e+06 2.093297e+06 2.093297e+06 2.102967e+06 1.810601e+06 1.810601e+06 1.073158e+05 -1.046417e+06 -1.046417e+06 -1.026744e+06 -2.414649e+05 2.237850e+06 2.210513e+06 2.237850e+06 2.237850e+06 1.189720e+06 1.189720e+06 1.189720e+06 1.157807e+06 1.157807e+06 1.603141e+06 1.603141e+06 1.621693e+06 1.621693e+06 1.387477e+06 1.387477e+06 1.387477e+06 1.437044e+06 1.437044e+06 2.958588e+05 2.958588e+05 2.958588e+05 3.259709e+05 3.259709e+05 1.911741e+06 1.911741e+06 1.911741e+06 1.842149e+06 1.842149e+06 8.971099e+05 8.971099e+05 8.971099e+05 3.857588e+05 -1.380447e+06 -1.380447e+06 -1.380447e+06 -1.306638e+06 -1.306638e+06 -9.842016e+05 -9.842016e+05 -9.842016e+05 -8.956635e+05 -8.956635e+05 -5.010165e+05 -5.010165e+05 -5.010165e+05 -4.184678e+05 -4.184678e+05 1.657117e+06 1.657117e+06 1.657117e+06 4.584433e+05 4.584433e+05 4.584433e+05 4.979508e+05 4.979508e+05 -2.378108e+05 -1.310745e+05 -4.728660e+05 -4.728660e+05 -4.728660e+05 -5.210498e+05 4.050198e+05 4.050198e+05 3.891750e+05 1.221697e+05 1.221697e+05 1.227414e+05 1.227414e+05 1.652046e+05 1.975781e+05 6.846459e+05 5.650087e+05 6.846459e+05 6.846459e+05 3.639672e+05 3.639672e+05 2.285849e+05 8.443496e+05 8.859756e+05 1.820449e+06 1.820449e+06 1.820449e+06 1.792902e+06 1.807666e+06 -2.813358e+05 -2.813358e+05 -2.813358e+05 -3.137546e+05 -9.710906e+05 -8.462653e+05 -1.655253e+06 -1.655253e+06 -1.655253e+06 -1.639691e+06 1.283250e+06 1.291805e+06 1.286362e+06 1.402311e+05 1.402311e+05 1.289729e+05 -1.568006e+06 -1.492025e+06 -1.492025e+06 -1.480839e+06 -1.458915e+06 -1.004269e+06 -9.914364e+05 -9.912788e+05 -3.539752e+05 -3.539752e+05 -3.539752e+05 -3.601489e+05 -1.337581e+06 -1.337581e+06 -1.337581e+06 -1.361137e+06 1.642098e+05 -1.325802e+06 -1.298679e+06 -1.298679e+06 8.905195e+05 8.905195e+05 8.905195e+05 -3.840573e+05 1.891296e+06 1.891296e+06 -1.946017e+05 -1.946017e+05 -1.946017e+05 1.096119e+06 -1.547533e+06 -1.547533e+06 -2.924575e+05 -4.366831e+05 -4.366831e+05 -4.366831e+05 -4.481279e+05 -9.245351e+05 -1.666488e+06 -1.666488e+06 -1.655746e+06 -1.491109e+06 2.262823e+05 2.262823e+05 -1.206709e+06 -1.206709e+06 -1.206709e+06 -1.229886e+06 1.738691e+06 1.752642e+06 1.752642e+06 9.764462e+05 -1.362830e+06 -1.362830e+06 -1.369204e+06 1.849491e+06 1.849491e+06 1.761399e+06 1.309840e+06 -6.769865e+05 -6.661597e+05 -6.661597e+05 2.199352e+06 2.199352e+06 -7.377903e+05 1.979021e+06 1.979021e+06 -5.690244e+05 -5.690244e+05 -5.690244e+05 -5.974787e+05 -1.041020e+06 -1.041020e+06 -8.508164e+05 -8.508164e+05 -1.584877e+06 -1.657863e+06 7.200344e+05 7.080258e+05 -1.289076e+06 -1.259976e+06 -1.259976e+06 3.145249e+05 3.294159e+05 3.294159e+05 -1.632595e+06 -1.632595e+06 -1.621685e+06 -1.621685e+06 1.583059e+06 3.606610e+05 2.213858e+06 2.213858e+06 2.217334e+06 2.236083e+06 2.236083e+06 1.690069e+06 1.678638e+06 1.126387e+06 1.126387e+06 1.126387e+06 2.055919e+06 2.055919e+06 2.055919e+06 2.050182e+06 -6.222005e+05 -6.222005e+05 1.189917e+06 -1.596900e+06 -1.596900e+06 -4.132412e+05 -9.150676e+05 -1.463837e+05 -1.463837e+05 -1.463837e+05 -1.415631e+06 -1.415631e+06 1.643409e+06 1.632830e+06 1.632830e+06 6.033687e+05 6.153886e+05 5.021085e+05 5.160205e+05 -1.667907e+06 2.141683e+06 2.141683e+06 -1.107370e+06 -1.107370e+06 -1.107370e+06 -1.114471e+06 2.076359e+06 -9.039300e+05 -4.833310e+05 -4.833310e+05 -5.121266e+05 -6.878558e+05 -6.878558e+05 -1.544592e+06 -1.544592e+06 -1.567662e+06 1.006188e+06 1.011994e+06 1.011994e+06 -7.145558e+04 2.176451e+06 2.176451e+06 2.149518e+06 2.149518e+06 2.336627e+04 2.336627e+04 2.336627e+04 -1.169123e+06 -1.169123e+06 -1.169123e+06 7.683547e+04 7.683547e+04 1.792831e+06 2.154097e+06 2.133269e+06 2.104241e+06 1.701414e+06 2.171561e+06 -1.433435e+06 6.441836e+05 6.761371e+05 -1.135777e+06 -1.135777e+06 1.382169e+06 1.220386e+06 -1.072418e+06 -1.087391e+06 -1.971382e+04 -1.971382e+04 2.276433e+06 2.264201e+06 2.230224e+06 2.230224e+06 2.230224e+06 2.246482e+06 1.857264e+06 1.813983e+06 1.908511e+06 1.917380e+06 5.878744e+05 5.878744e+05 5.742956e+05 1.707548e+06 -1.344356e+06 -1.219337e+06 1.350876e+06 1.232214e+06 1.232214e+06 1.232214e+06 -1.311294e+05 -5.225612e+05 -5.225612e+05 -5.225612e+05 2.255299e+06 1.880825e+06 2.133617e+06 2.100916e+06 -7.251410e+05 1.022639e+06 2.159232e+06 2.192652e+06 -1.574328e+06 -1.543553e+06 -1.543553e+06 8.484977e+05 1.133658e+06 -1.415357e+06 -1.509540e+06 1.794904e+06 1.750394e+06 1.750394e+06 -1.274971e+06 -1.274971e+06 -1.260142e+06 -1.260142e+06 -6.025571e+05 1.404351e+06 3.042418e+05 -1.702911e+06 1.975421e+06 1.942139e+06 -1.666640e+05 2.661429e+05 2.563190e+05 2.563190e+05 1.892452e+06 1.892452e+06 1.876550e+06 1.876550e+06 -2.185374e+05 -1.907847e+05 -8.040132e+05 -8.040132e+05 -8.127585e+05 -3.912907e+05 -3.912907e+05 -4.238533e+05 -4.238533e+05 -6.880843e+05 -6.880843e+05 -1.650857e+06 2.098143e+06 2.098143e+06 1.723846e+06 1.723846e+06 1.723846e+06 1.519172e+06 -1.369539e+06 -1.369539e+06 -1.090594e+06 -1.090594e+06 -1.484892e+06 -1.476797e+06 1.646749e+06 2.044248e+06 -1.707925e+06 -1.580870e+06 -1.580870e+06 -9.340422e+03 -9.340422e+03 3.141608e+04 -1.529451e+06 -1.529451e+06 -8.803537e+05 -8.803537e+05 1.962738e+06 1.962738e+06 6.548309e+05 2.196749e+06 1.116935e+06 1.116935e+06 1.096077e+06 3.106795e+05 3.357017e+05 -1.448074e+06 -1.242990e+06 -6.556846e+05 2.129056e+06 -1.658456e+06 -4.594624e+05 -4.594624e+05 -4.594624e+05 1.861681e+05 1.861681e+05 1.861681e+05 4.969164e+05 -2.908956e+05 -2.908956e+05 -2.908956e+05 -3.319898e+05 2.206228e+06 2.181793e+06 1.366331e+06 1.344949e+06 1.344949e+06 7.206908e+04 7.206908e+04 7.206908e+04 1.488587e+06 -1.319645e+06 2.087026e+06 2.230586e+06 2.230586e+06 2.207714e+06 1.930493e+05 -9.534181e+05 -9.534181e+05 -9.377063e+05 -6.490752e+05 -6.490752e+05 2.147012e+06 -1.651683e+06 -6.259164e+05 -5.936634e+05 -1.031429e+06 5.802592e+05 6.136015e+05 2.032052e+06 -1.297459e+05 -1.297459e+05 -1.297459e+05 -8.583944e+05 -8.583944e+05 1.612160e+06 1.595217e+06 1.595217e+06 1.946092e+06 1.915543e+06 -1.178545e+06 -1.189735e+06 1.975021e+06 1.975021e+06 1.975021e+06 1.959680e+06 -1.153032e+06 -1.153032e+06 -1.138967e+06 -1.557207e+06 -1.557207e+06 7.216344e+05 7.216344e+05 7.216344e+05 7.068796e+05 -6.323534e+05 2.011010e+06 2.011010e+06 2.011010e+06 2.006121e+06 2.064415e+06 -1.051429e+06 -1.051429e+06 -1.051072e+06 -1.051072e+06 -1.217801e+06 1.656400e+06 1.656400e+06 2.305236e+04 -9.650443e+03 1.502364e+06 1.502364e+06 -1.110141e+06 -1.083126e+06 1.871727e+06 2.210513e+06 2.192802e+06 -7.079863e+05 -7.025618e+05 2.118337e+06 -2.857326e+05 -2.857326e+05 -2.933482e+05 -2.933482e+05 -7.220721e+05 -1.123746e+05 -7.516467e+04 1.285055e+06 -5.556007e+05 -1.121644e+06 -1.079506e+06 1.674921e+06 1.674921e+06 2.178888e+06 2.178888e+06 2.178888e+06 2.159238e+06 -1.511026e+06 -1.511026e+06 -1.538151e+06 6.760118e+05 6.707322e+05 1.190873e+06 -1.625624e+06 -1.609452e+06 -1.609452e+06 -1.609452e+06 -1.606251e+06 -3.904640e+05 2.268651e+06 1.923283e+06 1.866409e+06 1.866409e+06 -1.359062e+06 -1.359062e+06 -1.359062e+06 -1.382500e+06 2.129104e+06 2.129104e+06 1.820618e+06 1.820618e+06 1.799091e+06 1.376502e+06 1.038254e+06 2.074983e+06 -5.296705e+05 -5.594761e+05 2.153911e+06 2.154497e+06 3.480694e+05 1.121560e+06 1.121560e+06 1.121560e+06 1.161561e+06 -1.336534e+06 -2.437522e+05 -2.470328e+05 -1.509255e+06 -1.481502e+06 1.349957e+05 1.559641e+05 -8.941401e+05 -8.941401e+05 1.239735e+06 -7.437339e+05 -7.437339e+05 -7.032026e+05 -8.220307e+05 -8.220307e+05 -3.659633e+05 -1.265896e+06 -1.265896e+06 -1.310507e+06 1.820000e+06 2.047246e+06 2.047246e+06 -4.607838e+05 -4.521961e+05 -4.521961e+05 8.162845e+05 -1.417909e+06 -1.572904e+06 -1.561690e+06 1.723239e+06 1.723239e+06 2.533016e+05 -6.395956e+05 7.845507e+05 7.778408e+05 6.748770e+05 1.743723e+06 1.743723e+06 1.200967e+06 1.200967e+06 1.200967e+06 6.363457e+05 6.429773e+05 1.478301e+06 1.487920e+06 1.487920e+06 2.714289e+05 2.378575e+05 2.378575e+05 9.196381e+05 5.461356e+05 5.903630e+05 1.935863e+06 1.996356e+06 1.996356e+06 1.996356e+06 2.010403e+06 -1.443939e+06 -1.048874e+06 -4.033079e+05 -3.737637e+05 -8.976302e+05 -8.976302e+05 -8.976302e+05 -1.000608e+05 -1.000608e+05 -1.000608e+05 -8.627579e+04 -4.328505e+04 -1.432170e+06 -1.207694e+06 -1.223615e+06 -2.064636e+05 -2.064636e+05 -1.269172e+06 -1.229340e+06 -1.228479e+06 -1.228479e+06 -2.937096e+05 -7.497598e+05 -7.497598e+05 -7.671191e+05 1.336332e+06 1.336332e+06 1.297530e+06 -5.234189e+05 -5.234189e+05 4.124373e+05 -1.066770e+06 -1.066770e+06 -1.100406e+06 -1.100406e+06 -1.468969e+06 -1.468969e+06 -1.468969e+06 1.895245e+06 1.861545e+06 1.861545e+06 -1.529168e+06 -1.529168e+06 -1.529168e+06 -1.580118e+06 -1.491935e+06 -1.521430e+05 1.925522e+06 1.925522e+06 1.879334e+06 1.799696e+06 1.799696e+06 1.799696e+06 1.029993e+06 1.029993e+06 1.004101e+06 8.777798e+05 8.777798e+05 9.146727e+05 -1.439682e+06 -1.353355e+06 -1.353355e+06 2.122301e+06 2.076767e+06 -5.938193e+05 -5.938193e+05 -5.938193e+05 2.117033e+06 -1.165971e+06 -1.165971e+06 -1.150322e+06 -1.150322e+06 -1.450993e+06 -1.450993e+06 -1.425748e+06 -1.425748e+06 -1.525335e+06 -1.525335e+06 -1.545694e+06 7.297761e+05 7.248791e+05 -5.684555e+05 1.653521e+06 1.653521e+06 1.653521e+06 -9.978729e+04 1.162479e+06 -1.315510e+06 9.981285e+05 2.079468e+06 -8.533339e+05 1.269538e+06 1.269538e+06 2.110535e+06 2.073928e+06 2.073928e+06 8.211250e+05 8.329345e+05 2.020941e+06 2.020941e+06 1.962065e+06 -1.233899e+06 -1.233899e+06 -4.675080e+03 2.417942e+05 1.712387e+06 5.166407e+05 2.078405e+06 2.022739e+06 2.022739e+06 -6.383256e+05 -2.143006e+05 -3.329619e+05 1.961505e+06 1.974074e+06 -1.402911e+06 -1.402911e+06 -8.311629e+05 -8.311629e+05 3.076969e+05 -1.468395e+06 -1.471373e+06 -1.471373e+06 1.825146e+06 -6.910056e+05 -6.299974e+05 -3.359366e+05 -3.359366e+05 -3.359366e+05 -3.847695e+05 -3.847695e+05 1.131729e+06 1.716306e+06 1.922928e+06 1.443517e+06 1.443517e+06 6.328275e+05 6.328275e+05 6.444365e+05 5.806917e+05 5.806917e+05 2.027926e+06 2.027926e+06 2.027926e+06 1.964144e+06 1.964144e+06 9.086905e+05 9.086905e+05 9.514919e+05 1.154716e+06 1.074156e+06 1.074156e+06 1.074156e+06 -1.017688e+06 1.224736e+06 1.192225e+06 1.192225e+06 -9.945979e+05 -9.726393e+05 -1.534883e+06 -1.407465e+06 1.869154e+06 8.416655e+05 7.922061e+05 2.076767e+06 1.503971e+06 1.503971e+06 1.446613e+06 1.446613e+06 1.560422e+06 1.572278e+06 1.888173e+06 -1.326296e+06 -1.070843e+06 -1.070843e+06 -1.064744e+06 -1.459604e+06 1.646989e+06 -1.517414e+06 -5.092726e+04 -9.315909e+05 1.942898e+06 1.795902e+06 1.795902e+06 1.781659e+06 1.781659e+06 -4.045438e+05 1.886973e+05 1.886973e+05 1.886973e+05 -5.751224e+05 1.618881e+06 4.003750e+05 -1.227069e+06 -1.230807e+06 -7.121656e+05 -1.446304e+06 -1.109550e+06 -1.194086e+06 -1.303224e+06 -1.303224e+06 -1.303224e+06 1.244240e+06 -5.097511e+05 -1.417240e+06 1.473733e+06 1.473733e+06 1.433144e+06 6.210719e+05 -4.184798e+04 -4.184798e+04 1.761761e+06 9.848503e+05 1.015629e+06 -1.366934e+06 5.854506e+05 5.854506e+05 6.581880e+05 -1.453312e+06 -1.304212e+06 -1.304212e+06 -1.340768e+06 2.168436e+05 2.168436e+05 2.168436e+05 7.305952e+05 -2.775562e+05 4.579346e+05 -3.678634e+05 -4.207506e+05 -4.207506e+05 -5.604965e+05 -8.905042e+05 1.247512e+06 1.247512e+06 1.567987e+06 -6.682857e+05 -6.682857e+05 -6.682857e+05 -6.916984e+05 1.924209e+06 8.344087e+05 1.827548e+06 1.748784e+06 1.024749e+05 1.139954e+06 1.165297e+06 1.809520e+06 7.770797e+05 7.763992e+05 -1.382046e+06 7.560866e+05 1.501754e+06 1.501754e+06 1.501754e+06 2.016722e+06 1.988247e+06 1.460906e+06 1.744296e+06 2.016722e+06 -1.223040e+06 -1.302317e+06 -8.173994e+05 9.978853e+05 9.091206e+05 5.272717e+05 -1.131159e+06 -1.131159e+06 -1.131159e+06 -6.098447e+05 1.731763e+06 1.731763e+06 1.892361e+06 1.892361e+06 6.750156e+05 -1.248966e+06 1.694334e+06 2.654618e+04 2.654618e+04 2.654618e+04 -2.097026e+05 1.635203e+06 1.635203e+06 -6.505778e+03 4.685631e+05 1.030522e+06 -1.114564e+06 1.507258e+06 1.507258e+06 1.507258e+06 -1.186017e+06 -1.186017e+06 -1.186017e+06 2.001964e+06 4.459887e+05 1.784437e+06 1.784437e+06 -1.268112e+06 -1.268112e+06 -1.268112e+06 -1.228958e+06 -2.792763e+05 -2.792763e+05 -2.792763e+05 1.303478e+06 1.303478e+06 1.303478e+06 1.446122e+06 1.199132e+05 1.070521e+05 2.095285e+05 2.095285e+05 2.095285e+05 -1.446808e+05 -1.231374e+05 -1.231374e+05 1.250802e+06 1.148887e+06 1.924779e+06 9.246834e+04 6.593533e+04 -1.026403e+06 -8.948572e+05 7.819817e+05 -6.877128e+05 -1.072402e+06 -1.072402e+06 -1.118914e+06 1.596697e+06 6.677709e+05 -5.791393e+05 -6.095141e+05 -3.439895e+04 7.745312e+05 -3.380438e+05 -3.380438e+05 1.168354e+06 1.269318e+06 1.229006e+06 -7.461742e+05 4.397393e+05 1.657246e+06 -1.005215e+06 -1.005215e+06 -1.166664e+06 -1.166664e+06 1.361539e+06 1.361539e+06 1.361539e+06 1.272684e+06 1.272684e+06 7.590866e+05 1.446192e+06 1.425383e+06 1.425383e+06 -6.924017e+05 5.783509e+05 6.516387e+05 9.215807e+05 9.215807e+05 1.016501e+06 1.295812e+06 -9.840584e+05 -9.840584e+05 1.201102e+06 1.161849e+06 -1.026403e+06 -1.026403e+06 -5.697255e+05 -3.994393e+05 -3.994393e+05 -3.994393e+05 3.204907e+05 -7.741290e+05 -7.504451e+05 1.485196e+04 1.485196e+04 1.485196e+04 1.729448e+05 2.351556e+05 6.699171e+05 1.315807e+05 -6.105070e+05 9.260055e+05 9.260055e+05 9.260055e+05 8.658980e+05 -4.426697e+05 1.244202e+06 1.244202e+06 1.244202e+06 1.058106e+06 -9.131812e+05 1.131638e+06 1.131638e+06 3.458072e+05 -9.178296e+05 -9.178296e+05 -9.178296e+05 -9.395330e+05 -9.395330e+05 1.536117e+06 1.430210e+06 1.430210e+06 -8.545402e+05 -4.823103e+05 -4.823103e+05 8.347448e+05 -8.177770e+05 -8.177770e+05 -8.177770e+05 -7.177341e+05 -7.177341e+05 -7.177341e+05 1.982724e+05 1.982724e+05 2.476848e+05 -1.944229e+05 -8.443875e+05 -8.443875e+05 1.677452e+05 4.991587e+05 4.991587e+05 4.171057e+05 4.171057e+05 1.097766e+06 -3.186615e+05 -2.956157e+05 -2.956157e+05 -3.554961e+05 -3.554961e+05 -1.734647e+03 -1.734647e+03 9.920909e+04 7.282744e+05 7.282744e+05 6.546843e+05 6.546843e+05 -1.573758e+05 7.587740e+05 1.287877e+06 1.255207e+06 1.255207e+06 6.809466e+05 3.754968e+05 -3.848119e+04 1.166232e+06 1.166232e+06 7.534833e+05 1.256804e+06 1.256804e+06 -8.015136e+05 -8.015136e+05 8.584830e+05 1.064213e+06 1.064213e+06 1.064213e+06 9.675410e+05 9.675410e+05 1.126854e+06 5.142196e+05 5.142196e+05 9.866245e+05 9.866245e+05 9.110903e+05 -3.924308e+04 3.301674e+05 -5.152409e+05 -5.600514e+05 1.114522e+06 1.114522e+06 -4.457013e+05 -4.457013e+05 1.885141e+05 1.885141e+05 -7.281435e+05 4.146338e+05 4.146338e+05 3.347421e+05 -1.696576e+05 -1.696576e+05 8.256396e+05 8.256396e+05 7.455236e+05 5.380424e+05 5.380424e+05 2.374807e+03 2.374807e+03 2.739076e+05 2.739076e+05 1.285508e+05 1.423043e+05 1.423043e+05 -3.342316e+05 -3.450937e+05 -5.515874e+04 4.996228e+05 5.078525e+05 1.017663e+06 9.938660e+05 8.230892e+05 8.230892e+05 1.008621e+06 -2.091048e+05 -2.091048e+05 -3.065284e+05 6.250249e+05 9.940067e+05 1.081400e+06 1.081400e+06 1.192147e+05 1.192147e+05 8.509052e+05 9.784461e+05 -3.748349e+04 -3.748349e+04 7.752265e+05 7.752265e+05 -4.055535e+05 -2.429660e+05 -2.429660e+05 -2.429660e+05 -3.231662e+05 -3.231662e+05 7.535938e+05 6.799554e+05 5.506367e+05 5.506367e+05 6.505788e+05 6.505788e+05 7.490755e+05 -9.213935e+04 9.251894e+05 8.005696e+05 3.765468e+05 2.569914e+05 5.018925e+05 3.640530e+05 6.327737e+05 4.602160e+04 3.097179e+05 4.531031e+05 3.786524e+05 4.104412e+05 5.988603e+05 5.650087e+05 1.515596e+05 1.515596e+05 3.758457e+05 3.409347e+05 4.954406e+05 9.478860e+04 1.267355e+05 4.115703e+05 4.115703e+05 4.039809e+05 4.039809e+05 2.153314e+05 2.153314e+05 3.560274e+05 2.956399e+05 2.956399e+05 2.956399e+05 2.964951e+05 2.964951e+05 -7.076607e+04 -7.076607e+04 -7.076607e+04 -2.961322e+05 -2.961322e+05 -6.317036e+05 -5.847569e+05 5.295781e+04 -6.317036e+05 -6.317036e+05 -6.808466e+05 -4.050978e+05 -2.636418e+05 -1.931110e+05 -1.643133e+05 -1.572765e+05 -4.842802e+04 -3.852041e+04 3.264177e+04 3.264177e+04 1.993486e+05 -7.180896e+05 5.295781e+04 9.829296e+05 6.897549e+05 3.548351e+05 9.814985e+05 9.814985e+05 8.409458e+05 8.270416e+05 8.409458e+05 2.119675e+05 7.622689e+05 2.751961e+05 8.480198e+04 9.811332e+04 9.811332e+04 3.091206e+05 2.276433e+06 2.276433e+06 2.268651e+06 2.258102e+06 2.253332e+06 2.250150e+06 2.237771e+06 2.226764e+06 2.219609e+06 2.214978e+06 2.201926e+06 2.189999e+06 2.178136e+06 2.165869e+06 2.156801e+06 2.138323e+06 2.129764e+06 2.119331e+06 2.106154e+06 2.091034e+06 2.081522e+06 2.064916e+06 2.050420e+06 2.034516e+06 2.015106e+06 1.995760e+06 1.979559e+06 1.966785e+06 1.944249e+06 1.921714e+06 1.910427e+06 1.886359e+06 1.864520e+06 1.837110e+06 1.814319e+06 1.803558e+06 1.780808e+06 1.755916e+06 1.729546e+06 1.710988e+06 1.690069e+06 1.662970e+06 1.643409e+06 1.614038e+06 1.589439e+06 1.566676e+06 1.541473e+06 1.514277e+06 1.479625e+06 1.459995e+06 1.434027e+06 1.407825e+06 1.384193e+06 1.353513e+06 1.317458e+06 1.292649e+06 1.263152e+06 1.238337e+06 1.209526e+06 1.181390e+06 1.153961e+06 1.125493e+06 1.091877e+06 1.066953e+06 1.038079e+06 1.006188e+06 9.693869e+05 9.426745e+05 9.153692e+05 8.858425e+05 8.526729e+05 8.238711e+05 7.929745e+05 7.623887e+05 7.268633e+05 6.976746e+05 6.652384e+05 6.326510e+05 6.033687e+05 5.735970e+05 5.346341e+05 5.021085e+05 4.695349e+05 4.376841e+05 4.086665e+05 3.771530e+05 3.464525e+05 3.145249e+05 2.785758e+05 2.448437e+05 2.157567e+05 1.816389e+05 1.533788e+05 1.216667e+05 8.842735e+04 5.962001e+04 2.593035e+04 -5.669133e+03 -3.735982e+04 -7.684699e+04 -1.060763e+05 -1.360526e+05 -1.630793e+05 -2.008818e+05 -2.304684e+05 -2.583810e+05 -2.876682e+05 -3.203816e+05 -3.499919e+05 -3.772546e+05 -4.048002e+05 -4.345951e+05 -4.629155e+05 -4.995374e+05 -5.294386e+05 -5.624396e+05 -5.911487e+05 -6.165924e+05 -6.483843e+05 -6.769865e+05 -7.041792e+05 -7.309585e+05 -7.597146e+05 -7.854305e+05 -8.123053e+05 -8.413324e+05 -8.660818e+05 -8.942857e+05 -9.207495e+05 -9.420394e+05 -9.648588e+05 -9.973641e+05 -1.019567e+06 -1.044095e+06 -1.062841e+06 -1.090210e+06 -1.113758e+06 -1.132014e+06 -1.158224e+06 -1.177733e+06 -1.197907e+06 -1.225161e+06 -1.244552e+06 -1.266562e+06 -1.289076e+06 -1.305346e+06 -1.325802e+06 -1.343500e+06 -1.364840e+06 -1.376245e+06 -1.392938e+06 -1.413601e+06 -1.431238e+06 -1.447054e+06 -1.463551e+06 -1.479090e+06 -1.491109e+06 -1.511962e+06 -1.526000e+06 -1.539384e+06 -1.553072e+06 -1.569113e+06 -1.580813e+06 -1.592847e+06 -1.605325e+06 -1.614683e+06 -1.625110e+06 -1.634379e+06 -1.647244e+06 -1.654316e+06 -1.668834e+06 -1.679342e+06 -1.689285e+06 -1.697262e+06 -1.701451e+06 -1.710602e+06 -1.715379e+06 -1.720439e+06 -1.729004e+06 -1.734571e+06 -1.734740e+06 1.629705e+05 1.629705e+05 1.629705e+05 2.487902e+05 2.487902e+05 2.487902e+05 2.682144e+05 2.515692e+05 3.639672e+05 3.036661e+05 4.782533e+05 4.782533e+05 4.782533e+05 4.776488e+05 -1.343816e+05 -1.343816e+05 -1.343816e+05 -1.362062e+05 -1.053064e+05 1.626290e+06 1.626290e+06 1.626290e+06 1.621747e+06 1.603940e+06 1.603940e+06 1.603940e+06 1.565328e+06 1.062164e+04 1.062164e+04 1.062164e+04 4.321568e+04 6.926000e+04 7.049593e+04 -1.010293e+06 -1.010293e+06 -1.010293e+06 -1.058859e+06 -1.058859e+06 1.557526e+06 1.557526e+06 1.557526e+06 1.528291e+06 -1.299206e+06 -1.299206e+06 -1.299206e+06 -1.341770e+06 -1.341770e+06 2.174986e+06 2.174986e+06 2.174986e+06 7.213728e+05 7.213728e+05 7.213728e+05 7.400475e+05 4.197236e+05 4.197236e+05 4.197236e+05 1.436229e+06 1.436229e+06 1.436229e+06 1.439963e+06 -9.445898e+05 -9.445898e+05 -9.410964e+05 -9.410964e+05 8.341696e+05 8.341696e+05 8.592484e+05 1.485470e+06 1.485470e+06 1.485470e+06 1.514553e+06 1.514553e+06 -1.510910e+06 -1.510910e+06 -1.510910e+06 -1.470127e+06 -1.470127e+06 -1.013468e+04 -1.013468e+04 -1.013468e+04 -5.538590e+04 -5.538590e+04 1.675102e+06 1.675102e+06 8.782863e+05 8.782863e+05 8.782863e+05 8.854085e+05 4.235567e+05 4.235567e+05 4.235567e+05 4.115076e+05 4.140393e+05 9.440303e+05 9.440303e+05 9.440303e+05 7.702321e+05 7.702321e+05 7.830365e+05 1.803558e+06 1.811707e+06 1.811707e+06 -1.697262e+06 -1.672641e+06 -1.672641e+06 3.928970e+05 -8.123053e+05 -7.916626e+05 4.279009e+05 2.358296e+05 2.358296e+05 2.358296e+05 2.676146e+05 -2.940793e+04 2.340164e+05 2.340164e+05 2.340164e+05 2.884784e+05 2.884784e+05 -1.818979e+05 -1.818979e+05 -1.818979e+05 -1.379836e+05 -5.378921e+05 -5.378921e+05 -5.378921e+05 -5.470362e+05 1.571086e+06 1.558753e+06 1.512784e+06 1.673935e+06 1.673935e+06 3.156547e+05 3.156547e+05 3.156547e+05 3.460756e+05 1.070929e+06 1.070929e+06 1.070929e+06 1.108450e+06 1.108450e+06 1.075663e+06 -7.461799e+05 -7.461799e+05 -7.461799e+05 -7.669482e+05 -5.432789e+05 -5.432789e+05 -5.432789e+05 -5.039135e+05 -4.816894e+05 8.200222e+05 8.200222e+05 8.200222e+05 8.248471e+05 -1.382046e+06 -1.483659e+06 -2.230458e+05 -2.230458e+05 -2.230458e+05 -1.866591e+05 -9.727229e+05 -9.727229e+05 -9.727229e+05 -9.553327e+05 1.311445e+06 1.311445e+06 1.311445e+06 1.358988e+06 1.358988e+06 -1.180889e+06 -1.180889e+06 -1.180889e+06 -1.159380e+06 1.294349e+06 1.294349e+06 1.294349e+06 1.280364e+06 1.562834e+06 1.562834e+06 1.562834e+06 1.558724e+06 -7.534822e+05 -7.534822e+05 -7.555170e+05 4.493666e+05 4.493666e+05 5.331793e+05 5.331793e+05 5.331793e+05 2.718380e+05 2.718380e+05 2.718380e+05 2.580785e+05 -1.681995e+06 -1.681995e+06 -1.681995e+06 -1.688186e+06 -1.688186e+06 2.004833e+06 2.004833e+06 2.004833e+06 1.983815e+06 1.983815e+06 4.691046e+05 1.244298e+06 1.244