<?xml version="1.0"?>
 <VTKFile type="UnstructuredGrid" version="1.0" byte_order="LittleEndian" header_type="UInt64">
  <UnstructuredGrid>
    <FieldData>
     <DataArray type="Float64" Name="TimeValue" NumberOfTuples="1" format="ascii">
8e-05
     </DataArray>
    </FieldData>
   <Piece NumberOfPoints="3662" NumberOfCells="3444">
    <PointData>
     <DataArray type="Float64" Name="pointP" format="ascii">
1.452052e+05 1.452037e+05 1.452339e+05 1.451491e+05 1.450712e+05 1.450225e+05 1.449429e+05 1.448812e+05 1.448052e+05 1.447460e+05 1.446405e+05 1.445255e+05 1.443772e+05 1.442344e+05 1.440518e+05 1.439361e+05 1.437941e+05 1.436191e+05 1.434083e+05 1.432106e+05 1.430355e+05 1.427795e+05 1.425823e+05 1.423735e+05 1.421762e+05 1.419870e+05 1.416983e+05 1.414436e+05 1.411563e+05 1.407991e+05 1.404505e+05 1.402312e+05 1.398921e+05 1.396742e+05 1.393077e+05 1.389371e+05 1.385898e+05 1.382972e+05 1.378476e+05 1.374339e+05 1.370710e+05 1.366829e+05 1.363215e+05 1.358950e+05 1.355258e+05 1.351038e+05 1.346750e+05 1.342215e+05 1.337639e+05 1.333020e+05 1.328891e+05 1.324137e+05 1.319782e+05 1.314066e+05 1.309210e+05 1.304082e+05 1.299479e+05 1.294914e+05 1.289675e+05 1.285121e+05 1.279854e+05 1.274752e+05 1.268298e+05 1.263226e+05 1.256731e+05 1.251686e+05 1.245501e+05 1.240150e+05 1.234270e+05 1.229049e+05 1.222628e+05 1.216540e+05 1.210468e+05 1.205259e+05 1.199803e+05 1.194013e+05 1.188079e+05 1.182005e+05 1.175462e+05 1.168847e+05 1.163283e+05 1.157319e+05 1.150642e+05 1.144704e+05 1.138545e+05 1.132333e+05 1.125330e+05 1.118924e+05 1.113188e+05 1.107235e+05 1.101090e+05 1.093832e+05 1.088161e+05 1.080670e+05 1.074751e+05 1.068164e+05 1.061180e+05 1.055014e+05 1.048848e+05 1.042523e+05 1.036595e+05 1.030059e+05 1.023973e+05 1.017283e+05 1.011301e+05 1.004049e+05 9.976563e+04 9.910819e+04 9.847443e+04 9.783579e+04 9.725698e+04 9.654820e+04 9.596113e+04 9.532894e+04 9.475522e+04 9.415516e+04 9.346692e+04 9.287484e+04 9.229842e+04 9.174981e+04 9.106658e+04 9.049857e+04 8.980906e+04 8.980906e+04 1.036559e+05 1.058966e+05 1.069365e+05 1.070485e+05 1.073213e+05 1.077450e+05 1.080830e+05 1.080830e+05 1.081280e+05 1.082932e+05 1.084364e+05 1.084364e+05 1.088876e+05 1.088876e+05 1.094538e+05 1.097482e+05 1.098670e+05 1.102582e+05 1.106902e+05 1.117856e+05 1.117856e+05 1.130478e+05 1.130478e+05 1.137670e+05 1.152581e+05 1.156461e+05 1.165912e+05 1.170603e+05 1.184285e+05 1.193874e+05 1.202876e+05 1.217517e+05 1.222225e+05 1.237938e+05 1.254073e+05 1.266729e+05 1.277837e+05 1.277837e+05 1.288259e+05 1.310011e+05 1.310011e+05 1.332647e+05 1.339546e+05 1.339546e+05 1.354566e+05 1.369304e+05 1.369304e+05 1.382824e+05 1.390805e+05 1.402791e+05 1.402791e+05 1.410571e+05 1.422658e+05 1.429722e+05 1.441302e+05 1.445290e+05 1.034630e+05 1.127446e+05 1.127446e+05 1.127446e+05 1.133262e+05 1.096136e+05 1.096136e+05 1.096136e+05 1.103428e+05 1.103428e+05 1.142447e+05 1.142447e+05 1.142447e+05 1.144512e+05 1.140648e+05 1.021857e+05 1.107938e+05 1.107938e+05 1.102292e+05 1.129436e+05 1.129436e+05 1.129436e+05 1.125063e+05 1.121204e+05 1.265697e+05 1.265697e+05 1.265697e+05 1.260000e+05 1.056201e+05 1.056201e+05 1.056201e+05 1.052914e+05 1.049408e+05 1.049408e+05 1.120995e+05 1.120995e+05 1.096436e+05 1.092353e+05 1.034630e+05 1.034630e+05 1.073501e+05 1.073501e+05 1.073501e+05 1.071125e+05 1.066172e+05 1.066172e+05 1.069822e+05 1.108642e+05 1.108642e+05 1.108642e+05 1.109370e+05 1.102652e+05 1.118363e+05 1.117836e+05 1.069007e+05 1.069007e+05 1.069007e+05 1.060556e+05 9.927306e+04 9.706930e+04 9.522695e+04 9.706930e+04 1.231229e+05 1.231229e+05 1.231229e+05 1.277175e+05 1.277175e+05 1.277175e+05 1.265912e+05 9.239127e+04 9.159569e+04 9.239127e+04 9.239127e+04 1.208328e+05 1.208328e+05 1.208328e+05 1.208206e+05 1.314178e+05 1.314178e+05 1.314178e+05 1.310760e+05 1.361913e+05 1.361913e+05 1.361913e+05 1.351980e+05 1.351980e+05 9.556746e+04 9.556746e+04 9.556746e+04 9.518176e+04 1.010164e+05 1.010164e+05 1.010164e+05 1.001786e+05 1.001786e+05 1.409938e+05 1.409938e+05 1.409938e+05 1.413844e+05 1.134794e+05 1.134794e+05 1.134794e+05 1.135393e+05 1.135393e+05 8.941847e+04 8.982299e+04 1.368406e+05 1.368406e+05 1.368406e+05 1.365639e+05 1.396450e+05 1.396450e+05 1.396450e+05 1.401849e+05 1.401849e+05 1.181050e+05 1.181050e+05 1.181050e+05 1.179183e+05 1.382311e+05 1.382311e+05 1.382311e+05 1.378431e+05 9.532894e+04 1.264077e+05 1.264077e+05 1.264077e+05 1.205393e+05 1.205393e+05 1.205393e+05 1.202249e+05 1.149160e+05 1.149160e+05 1.149160e+05 1.146869e+05 1.055014e+05 1.027006e+05 1.027006e+05 1.027006e+05 1.024235e+05 1.108566e+05 1.108566e+05 1.108566e+05 1.109340e+05 1.109340e+05 8.982299e+04 8.982299e+04 8.941847e+04 1.362376e+05 1.362376e+05 1.362376e+05 1.373252e+05 1.373252e+05 1.134395e+05 1.140284e+05 1.140284e+05 1.308874e+05 1.308874e+05 1.308874e+05 1.319975e+05 1.319975e+05 1.295794e+05 1.295794e+05 1.295794e+05 1.299611e+05 9.597342e+04 9.505984e+04 9.597342e+04 9.597342e+04 9.646788e+04 1.101935e+05 1.101935e+05 1.101935e+05 1.109328e+05 1.120037e+05 1.131648e+05 1.131648e+05 1.049849e+05 1.049849e+05 1.034688e+05 1.034688e+05 1.147791e+05 1.147791e+05 1.147791e+05 1.163151e+05 1.163151e+05 1.042657e+05 1.042657e+05 1.042657e+05 1.042530e+05 1.036023e+05 1.085866e+05 1.070393e+05 1.212902e+05 1.212902e+05 1.212902e+05 1.208140e+05 1.254199e+05 1.254199e+05 1.254199e+05 1.247196e+05 1.155925e+05 1.155925e+05 1.155925e+05 1.295049e+05 1.295049e+05 1.295049e+05 1.050181e+05 1.050181e+05 1.050181e+05 1.334072e+05 1.334072e+05 1.334072e+05 9.600078e+04 9.600078e+04 9.600078e+04 9.595335e+04 9.527232e+04 1.056301e+05 1.056301e+05 1.056301e+05 9.731274e+04 9.731274e+04 9.745714e+04 1.178517e+05 1.178517e+05 1.178517e+05 1.185859e+05 1.081018e+05 1.081018e+05 1.081018e+05 1.080155e+05 1.041535e+05 1.041535e+05 1.396793e+05 1.396793e+05 1.396793e+05 1.390362e+05 9.226812e+04 9.226812e+04 9.226812e+04 9.228761e+04 9.893142e+04 9.893142e+04 9.893142e+04 9.909113e+04 1.363639e+05 1.363639e+05 1.363639e+05 1.221695e+05 1.221695e+05 1.221695e+05 1.223811e+05 1.095130e+05 1.095130e+05 1.095130e+05 1.095934e+05 1.090391e+05 1.090391e+05 1.090391e+05 1.088388e+05 1.146863e+05 1.146863e+05 1.146863e+05 1.151429e+05 1.431998e+05 1.431998e+05 1.431998e+05 1.412459e+05 1.412459e+05 1.412459e+05 1.411883e+05 1.395578e+05 1.395578e+05 1.395578e+05 1.391781e+05 1.370761e+05 1.370761e+05 1.367704e+05 1.217541e+05 1.217541e+05 1.216697e+05 9.942461e+04 9.942461e+04 9.951739e+04 1.120339e+05 1.120339e+05 1.120339e+05 1.123118e+05 1.171501e+05 1.171501e+05 1.171501e+05 1.411276e+05 1.411276e+05 1.409758e+05 1.194435e+05 1.194435e+05 1.190757e+05 1.127355e+05 1.382778e+05 1.381839e+05 1.018222e+05 1.018222e+05 1.014140e+05 1.431127e+05 1.431127e+05 1.431127e+05 1.433787e+05 1.165250e+05 1.165250e+05 1.346486e+05 1.346486e+05 1.346486e+05 1.437302e+05 1.437302e+05 1.437302e+05 1.435577e+05 1.435577e+05 1.420458e+05 1.420458e+05 1.420458e+05 1.424481e+05 1.400214e+05 1.400214e+05 1.400214e+05 1.397169e+05 1.397169e+05 1.045400e+05 1.045400e+05 1.045400e+05 1.039976e+05 1.039976e+05 1.401234e+05 1.401234e+05 1.407704e+05 1.407704e+05 1.422535e+05 1.422535e+05 1.422535e+05 1.363242e+05 1.363242e+05 1.363242e+05 1.370894e+05 1.020598e+05 1.020598e+05 1.020598e+05 1.020097e+05 1.020097e+05 9.109709e+04 9.109709e+04 9.109709e+04 9.191897e+04 9.191897e+04 1.109460e+05 1.109460e+05 1.109460e+05 1.123084e+05 1.123084e+05 1.231858e+05 1.231858e+05 1.231858e+05 1.238512e+05 1.238512e+05 1.286430e+05 1.286430e+05 1.286430e+05 1.299003e+05 1.305240e+05 1.305240e+05 1.338505e+05 1.338505e+05 1.338505e+05 1.325599e+05 1.325599e+05 9.899347e+04 9.899347e+04 9.899347e+04 9.956346e+04 9.956346e+04 1.078771e+05 1.078771e+05 1.078771e+05 1.095175e+05 1.095175e+05 1.082678e+05 1.082678e+05 1.066553e+05 1.066553e+05 1.176899e+05 1.176899e+05 1.190324e+05 1.190324e+05 1.085382e+05 1.068360e+05 1.068360e+05 1.163036e+05 1.163036e+05 1.163036e+05 1.166767e+05 1.166767e+05 1.137626e+05 1.137626e+05 1.053092e+05 1.053092e+05 1.053092e+05 1.055899e+05 1.117179e+05 1.009588e+05 1.003559e+05 1.078663e+05 1.078663e+05 1.078663e+05 1.081063e+05 1.081063e+05 1.000607e+05 1.000607e+05 9.928367e+04 9.893630e+04 9.934596e+04 1.316641e+05 1.316641e+05 1.316641e+05 1.308526e+05 1.354520e+05 1.354520e+05 1.348195e+05 1.098844e+05 1.098844e+05 1.098844e+05 9.316209e+04 9.316209e+04 9.316209e+04 9.284214e+04 9.267046e+04 1.415612e+05 1.415612e+05 1.415612e+05 1.154440e+05 1.000376e+05 9.452796e+04 9.452796e+04 1.389223e+05 1.389223e+05 1.245501e+05 1.247327e+05 1.247327e+05 1.247327e+05 1.284688e+05 1.284688e+05 1.284688e+05 1.282124e+05 1.452339e+05 1.448367e+05 1.448367e+05 1.441303e+05 1.441303e+05 1.441303e+05 1.442771e+05 1.050259e+05 1.050259e+05 1.046870e+05 1.068164e+05 1.447965e+05 1.447965e+05 1.416279e+05 1.416279e+05 1.090777e+05 1.090777e+05 9.738972e+04 9.738972e+04 9.738972e+04 1.438610e+05 1.438610e+05 1.440155e+05 8.955219e+04 8.955219e+04 9.011834e+04 1.403520e+05 1.435011e+05 1.429892e+05 1.429892e+05 1.430672e+05 1.235745e+05 1.235745e+05 1.235745e+05 1.235397e+05 1.324137e+05 1.324864e+05 1.451491e+05 1.446130e+05 1.359912e+05 1.359912e+05 1.332848e+05 1.332848e+05 1.332848e+05 1.333074e+05 1.082297e+05 1.082297e+05 1.077098e+05 1.077098e+05 1.205497e+05 1.426203e+05 1.426203e+05 1.421483e+05 1.272266e+05 1.272266e+05 1.272266e+05 9.654820e+04 1.448812e+05 1.441148e+05 1.303012e+05 1.303012e+05 1.303012e+05 1.300280e+05 9.638578e+04 9.638578e+04 9.625726e+04 1.295639e+05 1.295639e+05 1.295699e+05 1.010189e+05 1.010189e+05 1.108423e+05 1.108423e+05 1.444916e+05 1.378476e+05 1.377795e+05 1.288738e+05 1.436711e+05 1.436711e+05 1.342572e+05 9.879245e+04 9.827754e+04 9.827754e+04 1.062964e+05 1.062964e+05 1.059547e+05 1.059547e+05 1.420535e+05 1.420535e+05 1.252445e+05 1.438609e+05 1.225222e+05 1.225222e+05 1.228082e+05 1.310295e+05 1.310295e+05 1.310295e+05 1.446723e+05 1.446723e+05 1.149270e+05 9.424595e+04 9.424595e+04 1.321674e+05 1.317355e+05 1.351465e+05 1.198778e+05 9.049857e+04 9.106658e+04 1.427128e+05 1.278895e+05 9.169492e+04 9.169492e+04 9.169492e+04 9.101804e+04 1.414013e+05 9.006253e+04 9.873752e+04 9.873752e+04 1.342215e+05 1.325596e+05 1.033046e+05 1.033046e+05 1.429597e+05 1.429597e+05 9.328800e+04 9.328800e+04 1.065957e+05 1.262585e+05 1.262585e+05 1.013442e+05 1.066183e+05 1.143006e+05 1.140864e+05 1.253316e+05 1.253316e+05 1.245881e+05 1.245881e+05 1.001906e+05 1.142249e+05 1.442236e+05 9.149481e+04 1.133833e+05 1.336668e+05 1.389047e+05 9.102931e+04 1.025594e+05 1.032062e+05 1.059535e+05 1.328442e+05 1.326202e+05 1.443961e+05 1.443961e+05 1.254832e+05 1.248321e+05 1.366880e+05 1.044499e+05 1.393978e+05 1.393978e+05 1.352129e+05 1.352129e+05 1.352129e+05 1.118648e+05 1.243956e+05 9.729484e+04 1.405183e+05 1.407889e+05 1.408372e+05 1.408372e+05 1.408372e+05 1.311973e+05 1.311973e+05 1.311973e+05 1.314496e+05 1.440338e+05 1.237248e+05 1.236202e+05 1.129631e+05 1.129631e+05 1.129631e+05 1.340916e+05 1.340916e+05 1.340916e+05 1.346984e+05 1.290448e+05 1.290448e+05 1.295521e+05 1.209491e+05 1.205041e+05 1.001077e+05 1.003352e+05 9.838567e+04 9.838567e+04 9.808421e+04 9.401711e+04 9.401711e+04 9.378914e+04 9.378914e+04 1.049071e+05 1.432196e+05 1.105265e+05 1.441098e+05 1.437125e+05 1.432294e+05 1.432294e+05 1.428189e+05 1.428189e+05 1.352503e+05 1.363936e+05 1.188138e+05 1.415401e+05 1.415401e+05 1.352569e+05 1.352569e+05 1.401267e+05 1.161719e+05 1.161719e+05 1.161719e+05 1.379294e+05 1.159545e+05 9.522968e+04 9.522968e+04 9.522968e+04 9.542103e+04 9.542103e+04 1.301357e+05 1.302599e+05 1.434091e+05 1.434091e+05 1.439610e+05 9.260269e+04 9.300679e+04 1.282614e+05 1.282614e+05 1.254288e+05 1.317403e+05 1.417488e+05 9.680619e+04 9.680619e+04 9.680619e+04 9.753267e+04 1.436138e+05 1.436138e+05 1.433527e+05 1.429996e+05 1.422605e+05 1.422605e+05 1.069256e+05 1.069256e+05 1.069256e+05 1.081999e+05 9.912486e+04 1.083604e+05 1.077400e+05 1.077400e+05 1.220852e+05 1.187314e+05 1.187314e+05 1.195461e+05 1.360683e+05 1.350501e+05 1.350501e+05 1.418792e+05 1.418792e+05 8.982120e+04 1.231144e+05 1.231144e+05 1.122369e+05 1.113406e+05 1.113406e+05 1.172060e+05 1.173468e+05 1.230818e+05 1.403231e+05 9.859138e+04 9.859138e+04 9.859138e+04 1.033910e+05 1.416467e+05 1.413334e+05 1.158632e+05 1.158632e+05 1.400838e+05 1.400838e+05 1.400838e+05 1.298846e+05 1.298846e+05 1.298846e+05 1.249444e+05 1.056623e+05 1.287469e+05 1.287469e+05 1.287469e+05 9.342839e+04 1.432031e+05 1.037505e+05 1.047727e+05 1.220615e+05 1.221028e+05 1.221028e+05 1.273155e+05 1.200709e+05 1.421878e+05 1.424128e+05 1.424128e+05 1.184500e+05 1.389993e+05 1.389993e+05 1.388357e+05 1.383853e+05 1.401146e+05 1.394140e+05 1.394140e+05 1.378576e+05 1.279707e+05 1.279707e+05 1.275588e+05 1.275588e+05 1.387396e+05 1.387396e+05 1.378310e+05 1.378310e+05 1.171091e+05 1.425436e+05 1.417763e+05 1.206332e+05 1.206332e+05 1.336436e+05 9.111196e+04 1.347083e+05 1.372057e+05 1.328570e+05 1.328570e+05 1.128071e+05 9.942410e+04 1.300513e+05 1.395900e+05 1.398260e+05 1.398260e+05 9.812226e+04 1.304170e+05 1.304170e+05 1.311389e+05 1.163441e+05 1.163441e+05 1.163441e+05 1.092181e+05 1.263420e+05 9.588670e+04 9.588670e+04 9.609220e+04 1.338882e+05 1.338882e+05 1.295288e+05 1.405033e+05 1.405033e+05 1.405033e+05 1.233565e+05 1.413124e+05 1.251317e+05 1.321670e+05 1.316773e+05 1.197434e+05 1.192121e+05 1.192121e+05 1.066428e+05 1.060957e+05 1.060957e+05 9.419887e+04 9.369728e+04 1.052221e+05 1.045104e+05 1.045104e+05 1.404519e+05 1.404519e+05 1.404519e+05 1.387238e+05 1.379666e+05 1.379666e+05 1.101122e+05 1.408494e+05 1.325116e+05 1.210534e+05 1.210534e+05 9.009732e+04 9.009732e+04 1.014106e+05 1.418277e+05 1.418277e+05 1.119156e+05 1.350248e+05 1.340092e+05 1.340092e+05 1.243249e+05 1.243249e+05 1.334230e+05 1.334230e+05 1.191681e+05 1.177827e+05 1.028436e+05 1.309541e+05 1.410004e+05 1.410004e+05 1.383024e+05 1.288164e+05 1.288164e+05 1.274648e+05 1.274648e+05 8.991699e+04 1.179631e+05 1.071143e+05 1.077100e+05 1.219782e+05 1.213230e+05 1.011647e+05 1.264385e+05 1.264385e+05 1.264385e+05 1.391072e+05 1.391072e+05 1.399729e+05 1.025191e+05 1.025191e+05 1.025191e+05 9.808945e+04 9.808945e+04 1.341526e+05 1.341526e+05 1.350674e+05 1.395144e+05 1.391640e+05 1.158159e+05 1.369173e+05 1.369173e+05 1.363859e+05 1.203607e+05 1.379996e+05 1.379996e+05 1.252346e+05 1.061043e+05 1.061043e+05 1.061043e+05 1.047732e+05 1.296335e+05 9.163759e+04 9.288227e+04 9.430613e+04 9.641441e+04 1.290118e+05 1.280256e+05 1.094710e+05 1.404150e+05 1.383020e+05 1.383020e+05 1.383020e+05 1.385675e+05 1.084276e+05 1.390243e+05 1.350480e+05 1.353192e+05 1.255483e+05 1.255483e+05 1.255483e+05 1.148821e+05 1.148821e+05 1.148821e+05 1.172488e+05 1.172488e+05 1.375326e+05 1.369024e+05 1.369024e+05 1.369024e+05 1.171475e+05 1.323452e+05 1.323452e+05 1.323452e+05 1.192821e+05 1.269078e+05 1.269078e+05 1.269078e+05 1.007241e+05 1.007241e+05 1.007241e+05 9.570636e+04 1.072763e+05 1.352854e+05 1.352854e+05 1.320694e+05 1.384766e+05 1.121252e+05 1.104745e+05 1.104745e+05 1.104745e+05 1.222601e+05 1.344435e+05 1.339394e+05 1.019909e+05 1.010453e+05 1.197112e+05 9.275452e+04 1.358363e+05 1.358363e+05 1.371279e+05 1.369950e+05 1.297750e+05 1.180522e+05 1.359636e+05 1.099789e+05 1.099789e+05 1.162352e+05 1.211523e+05 1.143894e+05 1.143894e+05 1.138658e+05 1.123066e+05 9.894588e+04 9.894588e+04 1.254819e+05 1.254819e+05 1.264149e+05 1.280366e+05 1.345130e+05 1.340715e+05 1.183207e+05 1.195015e+05 1.297337e+05 1.378753e+05 1.372115e+05 1.002811e+05 9.483205e+04 9.483205e+04 9.483205e+04 1.346895e+05 1.346895e+05 1.236790e+05 1.236790e+05 1.228033e+05 1.331329e+05 1.289187e+05 1.278311e+05 1.278311e+05 1.059852e+05 1.059852e+05 1.071712e+05 1.035023e+05 1.035023e+05 1.155452e+05 1.027984e+05 1.016129e+05 1.109648e+05 1.083997e+05 1.118218e+05 1.133411e+05 1.286461e+05 1.239551e+05 1.239551e+05 1.239551e+05 1.259994e+05 1.334200e+05 1.358256e+05 1.177763e+05 1.333447e+05 1.230667e+05 1.230667e+05 1.246757e+05 1.204896e+05 1.204896e+05 1.195369e+05 1.195369e+05 1.132294e+05 1.138683e+05 9.540237e+04 9.600249e+04 1.182377e+05 1.050490e+05 1.222574e+05 1.222574e+05 1.154804e+05 1.154804e+05 1.154804e+05 1.141636e+05 1.325147e+05 1.316387e+05 1.162875e+05 1.006883e+05 1.110822e+05 1.258306e+05 1.177488e+05 1.177488e+05 1.224452e+05 1.224452e+05 1.032191e+05 1.032191e+05 1.204232e+05 1.320481e+05 1.291926e+05 1.291926e+05 1.277443e+05 9.711969e+04 1.221686e+05 1.307678e+05 1.117157e+05 1.117157e+05 1.106073e+05 1.157289e+05 1.167504e+05 1.281655e+05 1.281655e+05 1.119764e+05 1.119764e+05 1.053430e+05 1.035988e+05 1.035988e+05 1.140681e+05 1.258678e+05 1.012691e+05 1.206726e+05 1.244510e+05 1.272909e+05 9.745565e+04 1.048538e+05 1.216743e+05 1.216743e+05 1.243328e+05 9.855399e+04 9.646788e+04 1.021463e+05 1.021463e+05 1.021463e+05 1.038272e+05 1.141168e+05 1.141168e+05 1.238999e+05 1.238999e+05 1.219452e+05 1.219452e+05 1.158214e+05 9.980702e+04 9.887373e+04 1.179492e+05 1.179492e+05 1.179492e+05 1.175650e+05 1.097225e+05 1.097225e+05 1.179946e+05 1.179946e+05 1.143190e+05 1.143190e+05 1.138158e+05 9.643472e+04 9.643472e+04 9.643472e+04 9.526063e+04 1.127401e+05 1.110085e+05 1.110085e+05 1.007849e+05 1.032335e+05 9.706930e+04 9.802417e+04 9.955644e+04 9.955644e+04 1.113529e+05 1.193513e+05 1.059708e+05 1.062737e+05 1.112200e+05 1.046604e+05 1.046604e+05 1.149238e+05 1.144790e+05 1.199384e+05 1.016900e+05 1.016900e+05 1.000772e+05 1.176704e+05 1.176704e+05 1.152780e+05 1.014807e+05 1.003030e+05 1.003030e+05 1.003030e+05 9.884560e+04 1.137627e+05 9.950706e+04 1.028809e+05 1.090883e+05 9.950706e+04 1.041064e+05 1.009497e+05 1.009497e+05 1.078084e+05 1.072217e+05 1.035456e+05 1.029374e+05 1.073582e+05 1.073582e+05 1.073582e+05 1.030835e+05 1.082869e+05 1.082869e+05 1.082869e+05 1.064666e+05 1.064666e+05 1.053475e+05 1.038022e+05 1.071855e+05 1.047136e+05 1.042680e+05 1.063403e+05 1.050965e+05 1.057733e+05 1.070810e+05 1.070810e+05 1.036430e+05 1.036430e+05 1.044175e+05 1.072603e+05 1.072603e+05 1.072603e+05 1.075955e+05 1.075955e+05 1.062127e+05 1.062127e+05 1.062127e+05 1.254639e+05 1.263776e+05 1.263776e+05 1.263776e+05 1.021857e+05 1.021857e+05 1.266619e+05 1.266619e+05 1.266619e+05 1.276999e+05 1.276999e+05 1.041468e+05 1.029612e+05 1.247926e+05 1.247926e+05 1.239216e+05 1.021429e+05 1.283660e+05 1.276759e+05 1.279009e+05 1.009588e+05 1.025986e+05 1.029256e+05 1.082679e+05 1.082679e+05 1.085095e+05 1.402246e+05 1.165493e+05 1.165493e+05 1.165493e+05 1.145951e+05 1.219006e+05 1.219006e+05 1.219006e+05 1.224828e+05 1.217994e+05 1.217994e+05 1.349936e+05 1.180979e+05 1.180979e+05 1.180979e+05 1.179315e+05 1.102819e+05 1.390545e+05 1.390545e+05 1.390545e+05 1.216141e+05 1.335299e+05 1.335299e+05 1.302137e+05 1.302137e+05 1.302137e+05 1.199627e+05 1.199627e+05 1.199627e+05 1.230385e+05 1.201435e+05 1.201435e+05 1.204887e+05 1.246054e+05 1.162516e+05 1.205084e+05 1.193817e+05 1.187257e+05 1.154276e+05 1.140225e+05 1.173160e+05 1.129170e+05 1.113472e+05 1.127100e+05 1.127100e+05 1.108180e+05 1.108180e+05 1.108180e+05 1.080830e+05 1.369695e+05 1.239259e+05 1.239259e+05 1.202737e+05 1.185622e+05 1.157620e+05 1.157620e+05 1.328396e+05 1.328396e+05 1.287277e+05 1.287277e+05 1.248207e+05 1.229364e+05 1.173910e+05 1.139961e+05 1.109554e+05 1.109554e+05 1.084338e+05 1.092850e+05 1.367044e+05 1.367044e+05 1.152352e+05 1.114195e+05 1.114195e+05 1.129300e+05 1.115774e+05 1.105718e+05 1.094880e+05 1.094880e+05 1.094880e+05 1.096816e+05 1.096816e+05 1.091669e+05 1.089330e+05 1.089330e+05 1.089330e+05 1.111200e+05 1.111200e+05 1.029477e+05 1.085647e+05 1.085647e+05 1.087889e+05 1.084354e+05 1.084354e+05 1.034025e+05 1.045557e+05 1.034672e+05 1.082865e+05 1.082865e+05 1.082865e+05 1.080346e+05 1.091784e+05 1.059226e+05 1.081689e+05 1.274924e+05 1.075139e+05 1.069724e+05 1.078146e+05 1.077450e+05 1.287993e+05 1.317578e+05 1.317578e+05 1.337077e+05 1.337077e+05 1.358314e+05 1.358314e+05 1.358314e+05 1.374058e+05 1.380254e+05 1.380254e+05 1.380254e+05 1.414720e+05 1.081518e+05 1.085231e+05 1.085231e+05 1.085231e+05 1.089123e+05 1.094706e+05 1.098173e+05 1.149316e+05 1.093147e+05 1.099231e+05 1.101971e+05 1.100475e+05 1.107938e+05 1.105120e+05 1.097866e+05 1.086267e+05 1.092768e+05 1.087393e+05 1.087393e+05 1.083232e+05 1.083232e+05 1.093145e+05 1.087132e+05 1.081713e+05 1.080089e+05 1.292390e+05 1.307910e+05 1.370942e+05 1.429870e+05 1.452052e+05 1.451838e+05 1.451509e+05 1.451672e+05 1.450931e+05 1.450621e+05 1.449915e+05 1.449127e+05 1.448370e+05 1.447624e+05 1.446534e+05 1.058964e+05 1.058964e+05 1.070500e+05 1.070500e+05 1.073226e+05 1.077395e+05 1.080227e+05 1.080227e+05 1.080227e+05 1.080501e+05 1.076414e+05 1.076414e+05 1.069697e+05 1.069697e+05 1.069697e+05 1.107053e+05 1.107053e+05 1.107053e+05 1.110465e+05 1.110465e+05 1.067440e+05 1.067440e+05 1.067440e+05 1.071190e+05 1.058964e+05 1.058672e+05 1.058672e+05 1.079856e+05 1.089764e+05 1.089764e+05 1.439787e+05 1.439787e+05 1.439787e+05 1.445941e+05 1.445941e+05 1.069381e+05 1.075216e+05 1.075216e+05 1.442690e+05 1.442690e+05 1.439339e+05 1.339735e+05 1.339735e+05 1.339735e+05 1.275987e+05 1.275987e+05 1.275987e+05 1.259473e+05 1.259473e+05 1.084001e+05 1.406892e+05 1.406892e+05 1.406892e+05 1.402789e+05 1.447111e+05 1.447111e+05 1.447111e+05 1.444948e+05 1.440663e+05 1.426296e+05 1.426296e+05 1.426296e+05 1.447312e+05 1.440194e+05 1.440194e+05 1.440194e+05 1.442635e+05 1.307182e+05 1.324069e+05 1.307182e+05 1.307182e+05 1.117169e+05 1.117169e+05 1.056627e+05 1.348689e+05 1.348689e+05 1.447389e+05 1.447624e+05 1.446384e+05 1.446384e+05 1.442635e+05 1.429722e+05 1.422658e+05 1.440583e+05 1.437357e+05 1.430517e+05 1.430517e+05 1.430875e+05 1.425273e+05 1.431805e+05 1.430875e+05 1.426601e+05 1.414985e+05 1.414985e+05 1.417593e+05 1.417593e+05 1.421740e+05 1.412470e+05 1.411530e+05 1.405761e+05 1.405761e+05 1.399655e+05 1.405380e+05 1.390413e+05 1.373598e+05 1.373598e+05 1.324069e+05 1.286689e+05 1.286689e+05 1.270089e+05 1.270089e+05 1.256044e+05 1.245089e+05 1.208971e+05 1.096852e+05 1.056627e+05 1.056627e+05 1.087715e+05 1.087715e+05 1.087715e+05 1.086355e+05 1.074405e+05 1.090812e+05 1.090812e+05 1.090812e+05 1.090188e+05 1.101792e+05 1.101792e+05 1.101792e+05 1.100180e+05 1.097482e+05 1.136482e+05 1.136482e+05 1.136482e+05 1.142036e+05 1.181980e+05 1.181980e+05 1.181980e+05 1.179706e+05 1.171009e+05 1.145063e+05 1.145063e+05 1.139622e+05 1.230954e+05 1.230954e+05 1.230954e+05 1.237938e+05 1.237938e+05 1.216622e+05 1.216622e+05 1.216622e+05 1.111921e+05 1.111921e+05 1.213260e+05 1.213260e+05 1.213260e+05 1.206799e+05 1.206799e+05 1.304752e+05 1.304752e+05 1.304752e+05 1.265144e+05 1.265144e+05 1.265144e+05 1.188060e+05 1.188060e+05 1.188060e+05 1.099656e+05 1.261372e+05 1.254612e+05 1.210489e+05 1.202876e+05 1.302180e+05 1.271432e+05 1.271432e+05 1.176793e+05 1.176793e+05 1.207459e+05 1.194981e+05 1.243044e+05 1.243044e+05 1.243044e+05 1.303088e+05 1.348689e+05 1.210344e+05 1.161488e+05 1.161488e+05 1.161488e+05 1.237499e+05 1.194334e+05 1.163336e+05 1.146800e+05 1.130885e+05 1.175195e+05 1.130969e+05 1.126220e+05 1.123418e+05 1.123418e+05 1.080473e+05 1.354566e+05 1.354566e+05 1.258527e+05 1.156461e+05 1.156461e+05 1.237711e+05 1.385518e+05 1.139392e+05 1.139392e+05 1.115748e+05 1.115748e+05 1.115748e+05 1.220990e+05 1.273946e+05 1.118094e+05 1.135224e+05 1.116937e+05 1.107144e+05 1.106734e+05 1.106734e+05 1.106734e+05 1.097891e+05 1.097891e+05 1.102034e+05 1.100710e+05 1.100710e+05 1.094029e+05 1.093097e+05 1.084001e+05 1.089326e+05 1.089326e+05 1.079196e+05 1.082061e+05 1.267677e+05 1.341386e+05 1.341386e+05 1.375951e+05 1.375951e+05 1.312757e+05 1.074962e+05 1.165912e+05 1.253036e+05 1.277837e+05 1.283389e+05 1.302809e+05 1.302809e+05 1.324825e+05 1.324825e+05 1.324825e+05 1.343643e+05 1.358334e+05 1.369304e+05 1.382824e+05 1.382824e+05 1.383570e+05 1.419231e+05 1.117856e+05 1.130478e+05 1.296381e+05 1.390805e+05 1.137670e+05 1.146215e+05 1.114704e+05 1.106902e+05 1.120646e+05 1.108380e+05 1.094538e+05 1.128889e+05 1.096185e+05 1.096185e+05 1.092638e+05 1.091924e+05 1.084364e+05 1.084110e+05 1.084110e+05 1.082932e+05 1.086674e+05 1.087194e+05 1.283698e+05 1.315948e+05 1.351888e+05 1.395741e+05 1.351887e+05 1.365257e+05 1.320090e+05 1.389391e+05 1.364546e+05 1.081880e+05 1.070500e+05 1.452052e+05 1.452037e+05 1.452339e+05 1.451491e+05 1.450712e+05 1.450225e+05 1.449429e+05 1.448812e+05 1.448052e+05 1.447460e+05 1.446405e+05 1.445255e+05 1.443772e+05 1.442344e+05 1.440518e+05 1.439361e+05 1.437941e+05 1.436191e+05 1.434083e+05 1.432106e+05 1.430355e+05 1.427795e+05 1.425823e+05 1.423735e+05 1.421762e+05 1.419870e+05 1.416983e+05 1.414436e+05 1.411563e+05 1.407991e+05 1.404505e+05 1.402312e+05 1.398921e+05 1.396742e+05 1.393077e+05 1.389371e+05 1.385898e+05 1.382972e+05 1.378476e+05 1.374339e+05 1.370710e+05 1.366829e+05 1.363215e+05 1.358950e+05 1.355258e+05 1.351038e+05 1.346750e+05 1.342215e+05 1.337639e+05 1.333020e+05 1.328891e+05 1.324137e+05 1.319782e+05 1.314066e+05 1.309210e+05 1.304082e+05 1.299479e+05 1.294914e+05 1.289675e+05 1.285121e+05 1.279854e+05 1.274752e+05 1.268298e+05 1.263226e+05 1.256731e+05 1.251686e+05 1.245501e+05 1.240150e+05 1.234270e+05 1.229049e+05 1.222628e+05 1.216540e+05 1.210468e+05 1.205259e+05 1.199803e+05 1.194013e+05 1.188079e+05 1.182005e+05 1.175462e+05 1.168847e+05 1.163283e+05 1.157319e+05 1.150642e+05 1.144704e+05 1.138545e+05 1.132333e+05 1.125330e+05 1.118924e+05 1.113188e+05 1.107235e+05 1.101090e+05 1.093832e+05 1.088161e+05 1.080670e+05 1.074751e+05 1.068164e+05 1.061180e+05 1.055014e+05 1.048848e+05 1.042523e+05 1.036595e+05 1.030059e+05 1.023973e+05 1.017283e+05 1.011301e+05 1.004049e+05 9.976563e+04 9.910819e+04 9.847443e+04 9.783579e+04 9.725698e+04 9.654820e+04 9.596113e+04 9.532894e+04 9.475522e+04 9.415516e+04 9.346692e+04 9.287484e+04 9.229842e+04 9.174981e+04 9.106658e+04 9.049857e+04 8.980906e+04 8.980906e+04 1.036559e+05 1.036559e+05 1.067838e+05 1.070485e+05 1.073213e+05 1.077450e+05 1.080830e+05 1.080830e+05 1.081280e+05 1.082932e+05 1.084364e+05 1.084364e+05 1.088876e+05 1.088876e+05 1.094538e+05 1.097482e+05 1.098670e+05 1.102582e+05 1.106902e+05 1.117856e+05 1.117856e+05 1.130478e+05 1.130478e+05 1.137670e+05 1.152581e+05 1.156461e+05 1.165912e+05 1.170603e+05 1.184285e+05 1.193874e+05 1.202876e+05 1.217517e+05 1.222225e+05 1.237938e+05 1.254073e+05 1.266729e+05 1.277837e+05 1.277837e+05 1.288259e+05 1.310011e+05 1.310011e+05 1.332647e+05 1.339546e+05 1.339546e+05 1.354566e+05 1.369304e+05 1.369304e+05 1.382824e+05 1.390805e+05 1.402791e+05 1.402791e+05 1.410571e+05 1.422658e+05 1.429722e+05 1.441302e+05 1.445290e+05 1.034630e+05 1.127446e+05 1.127446e+05 1.127446e+05 1.133262e+05 1.096136e+05 1.096136e+05 1.096136e+05 1.103428e+05 1.103428e+05 1.142447e+05 1.142447e+05 1.142447e+05 1.144512e+05 1.140648e+05 1.021857e+05 1.107938e+05 1.107938e+05 1.102292e+05 1.129436e+05 1.129436e+05 1.129436e+05 1.125063e+05 1.121204e+05 1.265697e+05 1.265697e+05 1.265697e+05 1.260000e+05 1.056201e+05 1.056201e+05 1.056201e+05 1.052914e+05 1.049408e+05 1.049408e+05 1.120995e+05 1.120995e+05 1.096436e+05 1.092353e+05 1.034630e+05 1.034630e+05 1.073501e+05 1.073501e+05 1.073501e+05 1.071125e+05 1.066172e+05 1.066172e+05 1.069822e+05 1.108642e+05 1.108642e+05 1.108642e+05 1.109370e+05 1.102652e+05 1.118363e+05 1.117836e+05 1.069007e+05 1.069007e+05 1.069007e+05 1.060556e+05 9.927306e+04 9.706930e+04 9.522695e+04 9.706930e+04 1.231229e+05 1.231229e+05 1.231229e+05 1.277175e+05 1.277175e+05 1.277175e+05 1.265912e+05 9.239127e+04 9.159569e+04 9.239127e+04 9.239127e+04 1.208328e+05 1.208328e+05 1.208328e+05 1.208206e+05 1.314178e+05 1.314178e+05 1.314178e+05 1.310760e+05 1.361913e+05 1.361913e+05 1.361913e+05 1.351980e+05 1.351980e+05 9.556746e+04 9.556746e+04 9.556746e+04 9.518176e+04 1.010164e+05 1.010164e+05 1.010164e+05 1.001786e+05 1.001786e+05 1.409938e+05 1.409938e+05 1.409938e+05 1.413844e+05 1.134794e+05 1.134794e+05 1.134794e+05 1.135393e+05 1.135393e+05 8.941847e+04 8.982299e+04 1.368406e+05 1.368406e+05 1.368406e+05 1.365639e+05 1.396450e+05 1.396450e+05 1.396450e+05 1.401849e+05 1.401849e+05 1.181050e+05 1.181050e+05 1.181050e+05 1.179183e+05 1.382311e+05 1.382311e+05 1.382311e+05 1.378431e+05 9.532894e+04 1.264077e+05 1.264077e+05 1.264077e+05 1.205393e+05 1.205393e+05 1.205393e+05 1.202249e+05 1.149160e+05 1.149160e+05 1.149160e+05 1.146869e+05 1.055014e+05 1.027006e+05 1.027006e+05 1.027006e+05 1.024235e+05 1.108566e+05 1.108566e+05 1.108566e+05 1.109340e+05 1.109340e+05 8.982299e+04 8.982299e+04 8.941847e+04 1.362376e+05 1.362376e+05 1.362376e+05 1.373252e+05 1.373252e+05 1.134395e+05 1.140284e+05 1.140284e+05 1.308874e+05 1.308874e+05 1.308874e+05 1.319975e+05 1.319975e+05 1.295794e+05 1.295794e+05 1.295794e+05 1.299611e+05 9.597342e+04 9.505984e+04 9.597342e+04 9.597342e+04 9.646788e+04 1.101935e+05 1.101935e+05 1.101935e+05 1.109328e+05 1.120037e+05 1.131648e+05 1.131648e+05 1.049849e+05 1.049849e+05 1.034688e+05 1.034688e+05 1.147791e+05 1.147791e+05 1.147791e+05 1.163151e+05 1.163151e+05 1.042657e+05 1.042657e+05 1.042657e+05 1.042530e+05 1.036023e+05 1.085866e+05 1.070393e+05 1.212902e+05 1.212902e+05 1.212902e+05 1.208140e+05 1.254199e+05 1.254199e+05 1.254199e+05 1.247196e+05 1.155925e+05 1.155925e+05 1.155925e+05 1.295049e+05 1.295049e+05 1.295049e+05 1.050181e+05 1.050181e+05 1.050181e+05 1.334072e+05 1.334072e+05 1.334072e+05 9.600078e+04 9.600078e+04 9.600078e+04 9.595335e+04 9.527232e+04 1.056301e+05 1.056301e+05 1.056301e+05 9.731274e+04 9.731274e+04 9.745714e+04 1.178517e+05 1.178517e+05 1.178517e+05 1.185859e+05 1.081018e+05 1.081018e+05 1.081018e+05 1.080155e+05 1.041535e+05 1.041535e+05 1.396793e+05 1.396793e+05 1.396793e+05 1.390362e+05 9.226812e+04 9.226812e+04 9.226812e+04 9.228761e+04 9.893142e+04 9.893142e+04 9.893142e+04 9.909113e+04 1.363639e+05 1.363639e+05 1.363639e+05 1.221695e+05 1.221695e+05 1.221695e+05 1.223811e+05 1.095130e+05 1.095130e+05 1.095130e+05 1.095934e+05 1.090391e+05 1.090391e+05 1.090391e+05 1.088388e+05 1.146863e+05 1.146863e+05 1.146863e+05 1.151429e+05 1.