<?xml version="1.0"?>
 <VTKFile type="UnstructuredGrid" version="1.0" byte_order="LittleEndian" header_type="UInt64">
  <UnstructuredGrid>
    <FieldData>
     <DataArray type="Float64" Name="TimeValue" NumberOfTuples="1" format="ascii">
8e-05
     </DataArray>
    </FieldData>
   <Piece NumberOfPoints="3548" NumberOfCells="3379">
    <PointData>
     <DataArray type="Float64" Name="pointP" format="ascii">
8.922366e+04 8.863064e+04 8.805049e+04 8.757020e+04 8.682314e+04 8.629381e+04 8.570257e+04 8.512389e+04 8.446497e+04 8.396335e+04 8.343862e+04 8.286204e+04 8.239691e+04 8.181532e+04 8.133299e+04 8.086403e+04 8.026061e+04 7.976978e+04 7.929314e+04 7.878570e+04 7.824829e+04 7.777630e+04 7.730558e+04 7.679370e+04 7.634128e+04 7.589825e+04 7.543282e+04 7.500151e+04 7.452247e+04 7.413821e+04 7.372053e+04 7.331570e+04 7.289815e+04 7.248141e+04 7.211622e+04 7.170394e+04 7.132961e+04 7.094863e+04 7.062267e+04 7.022990e+04 6.992219e+04 6.958677e+04 6.917940e+04 6.893365e+04 6.858992e+04 6.825826e+04 6.798310e+04 6.765626e+04 6.742104e+04 6.717522e+04 6.691677e+04 6.667416e+04 6.642325e+04 6.619764e+04 6.600748e+04 6.583031e+04 6.563750e+04 6.542822e+04 6.524370e+04 6.508894e+04 6.494003e+04 6.480080e+04 6.463327e+04 6.455933e+04 6.444848e+04 6.431416e+04 6.421648e+04 6.410866e+04 6.401688e+04 6.395112e+04 6.390586e+04 6.384238e+04 6.376672e+04 6.376384e+04 6.370986e+04 6.373330e+04 6.373185e+04 6.446588e+04 6.518250e+04 6.625484e+04 6.702501e+04 6.702501e+04 6.802841e+04 6.898053e+04 6.954124e+04 7.008305e+04 7.008305e+04 7.091577e+04 7.161793e+04 7.213039e+04 7.263122e+04 7.283172e+04 7.385008e+04 7.407343e+04 7.446533e+04 7.506947e+04 7.550400e+04 7.585737e+04 7.645128e+04 7.682326e+04 7.723822e+04 7.786182e+04 7.786182e+04 7.836156e+04 7.906776e+04 7.924505e+04 7.960170e+04 7.985361e+04 8.021064e+04 8.079235e+04 8.133613e+04 8.150694e+04 8.181017e+04 8.224081e+04 8.243979e+04 8.306449e+04 8.323947e+04 8.354686e+04 8.386377e+04 8.402644e+04 8.463274e+04 8.473384e+04 8.513350e+04 8.540160e+04 8.563418e+04 8.609919e+04 8.620206e+04 8.676823e+04 8.676823e+04 8.703567e+04 8.740896e+04 8.790720e+04 8.790720e+04 8.831721e+04 8.870082e+04 8.870082e+04 8.903472e+04 8.936726e+04 8.958797e+04 8.998631e+04 8.998631e+04 9.044075e+04 9.044075e+04 9.071013e+04 9.094523e+04 9.126896e+04 9.146895e+04 9.165261e+04 9.206907e+04 9.206907e+04 9.238672e+04 9.260094e+04 9.280691e+04 9.312577e+04 9.312577e+04 9.085679e+04 9.085679e+04 9.085679e+04 9.119541e+04 9.741139e+04 9.741139e+04 9.741139e+04 9.384906e+04 9.384906e+04 9.384906e+04 9.485844e+04 8.741753e+04 8.741753e+04 8.741753e+04 8.659754e+04 8.255911e+04 8.255911e+04 8.255911e+04 8.163578e+04 7.085695e+04 7.085695e+04 7.085695e+04 7.108324e+04 7.172565e+04 7.370673e+04 7.370673e+04 7.370673e+04 7.415652e+04 9.099124e+04 9.099124e+04 9.099124e+04 8.405642e+04 8.405642e+04 8.405642e+04 8.445984e+04 8.427272e+04 6.849281e+04 6.849281e+04 6.849281e+04 6.794978e+04 8.826956e+04 8.826956e+04 8.826956e+04 8.905143e+04 8.905143e+04 7.561336e+04 7.561336e+04 7.561336e+04 7.546166e+04 7.547265e+04 6.856810e+04 6.856810e+04 6.856810e+04 6.843102e+04 6.850345e+04 7.720664e+04 7.720664e+04 7.720664e+04 7.715871e+04 6.572566e+04 6.572566e+04 6.572566e+04 8.841048e+04 8.841048e+04 7.738714e+04 7.738714e+04 7.210554e+04 7.210554e+04 7.210554e+04 7.169807e+04 6.699168e+04 6.699168e+04 6.699168e+04 6.652135e+04 6.469545e+04 6.469545e+04 6.524971e+04 6.524971e+04 7.148648e+04 7.148648e+04 7.148648e+04 7.130508e+04 7.130508e+04 6.649540e+04 6.649540e+04 6.649540e+04 6.703924e+04 6.703924e+04 8.915858e+04 7.126839e+04 7.126839e+04 7.126839e+04 7.176808e+04 8.523543e+04 8.523543e+04 8.523543e+04 8.498281e+04 8.498281e+04 8.060791e+04 8.060791e+04 8.060791e+04 8.169965e+04 8.169965e+04 7.706622e+04 7.706622e+04 7.706622e+04 7.695609e+04 7.695609e+04 7.482148e+04 7.482148e+04 7.482148e+04 7.593127e+04 7.593127e+04 8.941293e+04 8.941293e+04 8.941293e+04 8.956791e+04 8.892102e+04 8.892102e+04 8.892102e+04 8.817304e+04 7.990987e+04 7.990987e+04 7.990987e+04 7.899944e+04 7.899944e+04 9.427932e+04 9.427932e+04 9.427932e+04 8.818014e+04 8.818014e+04 8.818014e+04 8.856813e+04 8.856813e+04 9.285988e+04 9.285988e+04 9.285988e+04 9.439541e+04 9.439541e+04 8.631884e+04 8.631884e+04 8.631884e+04 8.742749e+04 7.988429e+04 7.988429e+04 7.309564e+04 7.309564e+04 7.309564e+04 8.551145e+04 8.551145e+04 8.677418e+04 8.677418e+04 8.744177e+04 8.744177e+04 8.744177e+04 8.742081e+04 6.707594e+04 6.707594e+04 6.707594e+04 6.751356e+04 8.755380e+04 8.755380e+04 6.755737e+04 6.755737e+04 6.755737e+04 7.999117e+04 7.999117e+04 7.999117e+04 7.975469e+04 7.975469e+04 6.523429e+04 6.523429e+04 6.523429e+04 6.583913e+04 6.583913e+04 6.432510e+04 6.432510e+04 6.416298e+04 6.436261e+04 6.436261e+04 6.436261e+04 8.010439e+04 8.010439e+04 7.452247e+04 6.724954e+04 6.724954e+04 6.724954e+04 6.528553e+04 7.718408e+04 7.670461e+04 6.933862e+04 6.933862e+04 6.933862e+04 6.596356e+04 6.596356e+04 6.596356e+04 6.446540e+04 6.446540e+04 6.446540e+04 6.823032e+04 6.823032e+04 6.823032e+04 6.908786e+04 6.908786e+04 7.214122e+04 7.214122e+04 7.214122e+04 7.107593e+04 7.107593e+04 7.300422e+04 7.300422e+04 7.360492e+04 7.360492e+04 7.231975e+04 7.231975e+04 7.278586e+04 8.921067e+04 8.921067e+04 8.902407e+04 8.902407e+04 8.898736e+04 8.898736e+04 9.943723e+04 9.879810e+04 9.943723e+04 9.943723e+04 8.336618e+04 8.172348e+04 8.172348e+04 7.308556e+04 7.308556e+04 7.308556e+04 7.163629e+04 7.163629e+04 7.163629e+04 8.696182e+04 7.904411e+04 7.904411e+04 7.843852e+04 7.843852e+04 7.837800e+04 8.063079e+04 7.627280e+04 6.480080e+04 6.547798e+04 6.547798e+04 7.066835e+04 7.066835e+04 7.025948e+04 7.372053e+04 7.434745e+04 7.434745e+04 6.471766e+04 6.471766e+04 6.471766e+04 6.437793e+04 6.454272e+04 8.682314e+04 8.710152e+04 8.710152e+04 7.211622e+04 7.265188e+04 7.265188e+04 8.915858e+04 7.936864e+04 7.936864e+04 7.287054e+04 8.464669e+04 8.464669e+04 8.464669e+04 6.634865e+04 7.156165e+04 7.156165e+04 7.108418e+04 8.140802e+04 8.140802e+04 8.140802e+04 8.210237e+04 8.210237e+04 8.184048e+04 8.375890e+04 8.375890e+04 7.333783e+04 8.512389e+04 8.553131e+04 6.463086e+04 6.463086e+04 6.494935e+04 6.523309e+04 6.517590e+04 6.517590e+04 6.546212e+04 6.563750e+04 6.621995e+04 6.621995e+04 6.728065e+04 8.629381e+04 8.670968e+04 6.517978e+04 7.606106e+04 6.429339e+04 8.362803e+04 8.362803e+04 6.819073e+04 6.810141e+04 6.468110e+04 6.963019e+04 6.963019e+04 6.963019e+04 7.017347e+04 7.017347e+04 8.767146e+04 8.767146e+04 7.406150e+04 8.310594e+04 8.279192e+04 6.522085e+04 6.670942e+04 6.670942e+04 8.825571e+04 7.912565e+04 7.260159e+04 6.933798e+04 8.725239e+04 7.304391e+04 7.355384e+04 7.243564e+04 7.278656e+04 7.278656e+04 7.753554e+04 6.444110e+04 6.993418e+04 7.049759e+04 6.555080e+04 8.659188e+04 8.659188e+04 8.622341e+04 7.296014e+04 7.381399e+04 7.381399e+04 6.656441e+04 8.411996e+04 8.411996e+04 8.411996e+04 8.380823e+04 6.541966e+04 6.525596e+04 8.152692e+04 8.152692e+04 8.152692e+04 8.061559e+04 6.759274e+04 6.960186e+04 6.794232e+04 6.794232e+04 7.625587e+04 7.621657e+04 7.460120e+04 7.498785e+04 6.821993e+04 8.464369e+04 6.858578e+04 6.892284e+04 6.892284e+04 6.933846e+04 6.933846e+04 6.738607e+04 6.738607e+04 7.789377e+04 7.789377e+04 6.775160e+04 7.195298e+04 8.596571e+04 8.596571e+04 8.102109e+04 8.102109e+04 8.240655e+04 6.915460e+04 8.305401e+04 8.235694e+04 7.220775e+04 7.255886e+04 6.524745e+04 6.524745e+04 6.575452e+04 6.642428e+04 8.746721e+04 6.627103e+04 6.627103e+04 7.293173e+04 7.346031e+04 6.567976e+04 6.588879e+04 6.602674e+04 7.419316e+04 6.640957e+04 8.394959e+04 8.394959e+04 7.449138e+04 8.836665e+04 6.737584e+04 7.080568e+04 8.637054e+04 7.799076e+04 7.799076e+04 7.799076e+04 7.838456e+04 7.838456e+04 7.595983e+04 7.566716e+04 7.935742e+04 7.854638e+04 7.013675e+04 6.606438e+04 8.198160e+04 7.226323e+04 6.583400e+04 7.660601e+04 6.936351e+04 6.737035e+04 6.737035e+04 6.737035e+04 7.485951e+04 7.499302e+04 8.170876e+04 8.222915e+04 6.685769e+04 6.685769e+04 6.984905e+04 6.961238e+04 6.961238e+04 6.920824e+04 6.920824e+04 8.071104e+04 6.851602e+04 6.869509e+04 6.869509e+04 7.808733e+04 7.808733e+04 8.238440e+04 7.924678e+04 7.924678e+04 7.901468e+04 6.839282e+04 6.839282e+04 6.845278e+04 6.845278e+04 6.845278e+04 6.786924e+04 8.141156e+04 8.841418e+04 7.311363e+04 7.311363e+04 7.335826e+04 8.929780e+04 7.981917e+04 8.099042e+04 7.105105e+04 6.661821e+04 8.349370e+04 8.394551e+04 7.494008e+04 7.494008e+04 8.326364e+04 8.326364e+04 7.583097e+04 6.938046e+04 7.062928e+04 7.062928e+04 7.939653e+04 8.046669e+04 8.929780e+04 7.925350e+04 7.783486e+04 7.783486e+04 8.437884e+04 7.036298e+04 7.036298e+04 6.850039e+04 6.999548e+04 6.999548e+04 8.888245e+04 8.888245e+04 8.818048e+04 7.868795e+04 7.868795e+04 7.868795e+04 7.783508e+04 6.904129e+04 8.699141e+04 9.024084e+04 8.008639e+04 8.008639e+04 7.483305e+04 7.483305e+04 7.393108e+04 8.950619e+04 7.296862e+04 7.199471e+04 7.199471e+04 7.914753e+04 7.011685e+04 7.011685e+04 7.120899e+04 7.295270e+04 8.094577e+04 7.480285e+04 7.480285e+04 7.480285e+04 8.689908e+04 8.569680e+04 7.624907e+04 7.750920e+04 7.750920e+04 7.708355e+04 7.708355e+04 7.708355e+04 7.582650e+04 7.169945e+04 8.020744e+04 8.020744e+04 8.137306e+04 7.264184e+04 7.617547e+04 7.617547e+04 7.617547e+04 7.601498e+04 7.848826e+04 7.889310e+04 9.216883e+04 9.047605e+04 8.961111e+04 8.531839e+04 8.021129e+04 8.170070e+04 8.298036e+04 8.298036e+04 7.523041e+04 7.523041e+04 7.364520e+04 7.398215e+04 8.356811e+04 8.356811e+04 8.356811e+04 7.535950e+04 9.112940e+04 7.724400e+04 9.196724e+04 9.222439e+04 8.197179e+04 8.285171e+04 7.587459e+04 7.426513e+04 7.595122e+04 7.732575e+04 7.732575e+04 8.615115e+04 8.615115e+04 8.615115e+04 9.434286e+04 8.178592e+04 8.269689e+04 8.294517e+04 8.646920e+04 8.372041e+04 8.463860e+04 9.210111e+04 8.938797e+04 8.049718e+04 8.049718e+04 8.049718e+04 7.845550e+04 7.788190e+04 8.666287e+04 8.666287e+04 8.255743e+04 8.255743e+04 8.903596e+04 9.000184e+04 8.461828e+04 9.086563e+04 8.511055e+04 9.554235e+04 8.966935e+04 8.966935e+04 9.248083e+04 9.487983e+04 9.487983e+04 9.125226e+04 9.125226e+04 9.294573e+04 9.294573e+04 8.934059e+04 9.437813e+04 9.437813e+04 9.089079e+04 9.619370e+04 9.793263e+04 9.873681e+04 9.258393e+04 9.258393e+04 9.258393e+04 7.368418e+04 7.368418e+04 7.368418e+04 7.360536e+04 7.360536e+04 9.129440e+04 9.129440e+04 9.129440e+04 9.182613e+04 7.303323e+04 7.303323e+04 7.347017e+04 7.347017e+04 6.725154e+04 6.725154e+04 6.725154e+04 9.060395e+04 9.060395e+04 9.060395e+04 9.051543e+04 8.331829e+04 8.331829e+04 8.331829e+04 8.402092e+04 8.542394e+04 8.542394e+04 8.101497e+04 8.101497e+04 8.101497e+04 7.913320e+04 7.913320e+04 7.913320e+04 7.590365e+04 7.590365e+04 7.590365e+04 7.519482e+04 7.519482e+04 7.519482e+04 7.485701e+04 8.815348e+04 8.815348e+04 8.815348e+04 8.579700e+04 8.579700e+04 8.579700e+04 8.916688e+04 8.916688e+04 8.916688e+04 8.736912e+04 8.736912e+04 8.736912e+04 8.667798e+04 8.667798e+04 9.286889e+04 9.286889e+04 9.155375e+04 9.018530e+04 9.499218e+04 9.499218e+04 9.499218e+04 8.772726e+04 8.772726e+04 7.987986e+04 7.987986e+04 7.987986e+04 8.278846e+04 8.278846e+04 8.278846e+04 7.938789e+04 7.938789e+04 7.938789e+04 7.890499e+04 7.792875e+04 7.792875e+04 7.792875e+04 7.811524e+04 7.740878e+04 7.740878e+04 7.740878e+04 7.992784e+04 7.992784e+04 7.992784e+04 7.985115e+04 7.956347e+04 8.258941e+04 8.258941e+04 8.258941e+04 7.746658e+04 7.746658e+04 7.890696e+04 7.890696e+04 7.929433e+04 8.038401e+04 8.038401e+04 8.418394e+04 8.418394e+04 8.418394e+04 8.539599e+04 8.539599e+04 8.517468e+04 8.517468e+04 8.517468e+04 7.918848e+04 8.739902e+04 8.739902e+04 8.739902e+04 9.115392e+04 9.064661e+04 9.792898e+04 9.792898e+04 9.369972e+04 9.369972e+04 8.494101e+04 8.494101e+04 8.494101e+04 8.540138e+04 8.584228e+04 7.415093e+04 7.415093e+04 7.965708e+04 7.296842e+04 7.726409e+04 7.726409e+04 7.726409e+04 8.120479e+04 7.550816e+04 7.550816e+04 7.977189e+04 8.227087e+04 8.227087e+04 8.233425e+04 8.711757e+04 8.711757e+04 8.316635e+04 8.316635e+04 8.316635e+04 7.071657e+04 7.071657e+04 7.071657e+04 7.471647e+04 7.431042e+04 8.701166e+04 7.230578e+04 7.230578e+04 7.230578e+04 7.154230e+04 7.691886e+04 7.691886e+04 8.423484e+04 8.423484e+04 8.078730e+04 7.560343e+04 7.560343e+04 7.620396e+04 7.620396e+04 8.125301e+04 8.125301e+04 8.125301e+04 8.938790e+04 8.938790e+04 9.123099e+04 9.123099e+04 7.842150e+04 8.214712e+04 8.214712e+04 8.214712e+04 8.057135e+04 8.057135e+04 8.558432e+04 8.558432e+04 7.370280e+04 7.370280e+04 9.039379e+04 9.039379e+04 8.172438e+04 8.382213e+04 8.382213e+04 8.384608e+04 8.384608e+04 7.593698e+04 7.593698e+04 7.593698e+04 8.327531e+04 8.327531e+04 8.327531e+04 7.521916e+04 7.896403e+04 8.047191e+04 8.109095e+04 8.109095e+04 8.145844e+04 7.658849e+04 8.452732e+04 8.452732e+04 8.606874e+04 8.606874e+04 8.606874e+04 7.464921e+04 7.473543e+04 7.473543e+04 8.628152e+04 8.628152e+04 8.653840e+04 8.380691e+04 8.367540e+04 8.367540e+04 8.967685e+04 8.967685e+04 8.967685e+04 8.699641e+04 8.699641e+04 9.093250e+04 8.522449e+04 8.131827e+04 8.131827e+04 9.324054e+04 8.030003e+04 8.030003e+04 8.196696e+04 8.279891e+04 8.279891e+04 8.275975e+04 8.843090e+04 8.843090e+04 7.955789e+04 7.955789e+04 8.710349e+04 8.273516e+04 8.273516e+04 8.412567e+04 8.412567e+04 8.445840e+04 8.669702e+04 8.154285e+04 8.154285e+04 8.466319e+04 8.395973e+04 7.625645e+04 7.625645e+04 8.094565e+04 8.235193e+04 8.941815e+04 8.941815e+04 8.941815e+04 8.848461e+04 8.848461e+04 8.848461e+04 8.508216e+04 8.508216e+04 9.138579e+04 9.138579e+04 9.138579e+04 8.316401e+04 8.946966e+04 8.840611e+04 8.863159e+04 9.027788e+04 9.027788e+04 9.027788e+04 8.462646e+04 8.766170e+04 8.766170e+04 8.664687e+04 8.664687e+04 8.664687e+04 9.329779e+04 8.391465e+04 8.707911e+04 8.707911e+04 8.820896e+04 8.820896e+04 8.820896e+04 8.793012e+04 8.963545e+04 8.063012e+04 8.063012e+04 8.063012e+04 8.172662e+04 8.172662e+04 8.242328e+04 9.336024e+04 8.888004e+04 8.592850e+04 8.892123e+04 8.892123e+04 8.887031e+04 8.889100e+04 8.889100e+04 9.214926e+04 9.214926e+04 9.214926e+04 8.761075e+04 8.752666e+04 8.354388e+04 8.978272e+04 9.021545e+04 8.926272e+04 8.403514e+04 9.336346e+04 9.336346e+04 9.346298e+04 9.168445e+04 9.168445e+04 8.842039e+04 9.288132e+04 9.288132e+04 9.288132e+04 9.153500e+04 9.153500e+04 8.598789e+04 8.598789e+04 8.644389e+04 9.056448e+04 9.056448e+04 9.192903e+04 8.756772e+04 8.856866e+04 9.240267e+04 9.364200e+04 9.162206e+04 8.927918e+04 9.364200e+04 9.553081e+04 6.864652e+04 6.864652e+04 7.704715e+04 7.704715e+04 7.024564e+04 7.024564e+04 7.612994e+04 7.453709e+04 7.010290e+04 6.921412e+04 6.658991e+04 9.480562e+04 9.480562e+04 8.953442e+04 7.984539e+04 7.922868e+04 9.206235e+04 9.206235e+04 6.833311e+04 6.882108e+04 6.787380e+04 6.864365e+04 6.864365e+04 6.864365e+04 7.075805e+04 7.075805e+04 7.075805e+04 6.782539e+04 7.133260e+04 7.133260e+04 7.162667e+04 7.162667e+04 6.920430e+04 7.019428e+04 6.983260e+04 8.689687e+04 9.465681e+04 9.635828e+04 9.792065e+04 9.117476e+04 9.117476e+04 8.488108e+04 7.267393e+04 6.966201e+04 7.158843e+04 7.215131e+04 7.215131e+04 7.507609e+04 7.838744e+04 8.195020e+04 8.447181e+04 8.447181e+04 8.685266e+04 9.159089e+04 9.026770e+04 9.304651e+04 9.304651e+04 9.304651e+04 8.629035e+04 8.883470e+04 8.802182e+04 8.802182e+04 7.729711e+04 8.633958e+04 8.633958e+04 8.178465e+04 7.788598e+04 8.343066e+04 8.343066e+04 9.271324e+04 9.271324e+04 9.271324e+04 9.239718e+04 9.239718e+04 9.312639e+04 8.269126e+04 8.371579e+04 8.496958e+04 8.762868e+04 9.140938e+04 7.644910e+04 8.020370e+04 8.040293e+04 8.749322e+04 8.282011e+04 8.903729e+04 8.574934e+04 8.861565e+04 8.861565e+04 9.069932e+04 8.749612e+04 8.848266e+04 9.056593e+04 8.775895e+04 9.281095e+04 9.181296e+04 9.181296e+04 9.207682e+04 9.027354e+04 9.151144e+04 8.784120e+04 8.784120e+04 8.680104e+04 8.664774e+04 8.964645e+04 8.931197e+04 9.116258e+04 8.983755e+04 9.205940e+04 8.753780e+04 9.177147e+04 9.177147e+04 9.177147e+04 9.187774e+04 9.135496e+04 9.135496e+04 8.990695e+04 8.990695e+04 9.094477e+04 9.078325e+04 9.078325e+04 9.269668e+04 9.011498e+04 9.099286e+04 9.048188e+04 9.279259e+04 9.228009e+04 9.324054e+04 9.324054e+04 9.302013e+04 8.706352e+04 9.205657e+04 9.205657e+04 9.231388e+04 9.231388e+04 9.085467e+04 9.279705e+04 9.263003e+04 9.231976e+04 9.231976e+04 6.401776e+04 6.401776e+04 6.394233e+04 6.388491e+04 6.386140e+04 6.384999e+04 6.378776e+04 6.375482e+04 7.142274e+04 7.142274e+04 7.142274e+04 7.081920e+04 6.912489e+04 6.912489e+04 6.912489e+04 6.899673e+04 6.425385e+04 6.425385e+04 6.443922e+04 6.443922e+04 6.436843e+04 6.437995e+04 6.437995e+04 6.437995e+04 6.399373e+04 6.728217e+04 6.728217e+04 6.728217e+04 6.743255e+04 6.784865e+04 6.837280e+04 6.435440e+04 6.435440e+04 6.486247e+04 6.429790e+04 6.429790e+04 6.429790e+04 6.597195e+04 6.597195e+04 6.597195e+04 6.525726e+04 6.525726e+04 6.553550e+04 6.659714e+04 6.446591e+04 6.461813e+04 6.461813e+04 6.464803e+04 6.518250e+04 6.664240e+04 6.664240e+04 6.664240e+04 6.729367e+04 6.729367e+04 6.553550e+04 6.526837e+04 6.558452e+04 6.484126e+04 6.575096e+04 6.575096e+04 6.616175e+04 6.607306e+04 6.661091e+04 6.746840e+04 6.840917e+04 7.058896e+04 7.058896e+04 7.208766e+04 7.335027e+04 7.505628e+04 7.505628e+04 7.505628e+04 7.648543e+04 7.648543e+04 7.996198e+04 8.246715e+04 8.246715e+04 9.122650e+04 8.409469e+04 8.409469e+04 8.409469e+04 8.418820e+04 8.418820e+04 8.175460e+04 8.175460e+04 8.175460e+04 7.263122e+04 7.263122e+04 8.452614e+04 9.263887e+04 9.263887e+04 9.263887e+04 7.955945e+04 7.955945e+04 7.955945e+04 8.008357e+04 8.029403e+04 8.943043e+04 8.943043e+04 8.943043e+04 7.794761e+04 7.794761e+04 7.794761e+04 7.254763e+04 7.254763e+04 7.254763e+04 7.261556e+04 7.261556e+04 7.540183e+04 7.540183e+04 7.540183e+04 8.173994e+04 8.173994e+04 7.447028e+04 7.447028e+04 7.447028e+04 7.462200e+04 7.462200e+04 7.675533e+04 7.675533e+04 7.675533e+04 8.886724e+04 8.886724e+04 8.886724e+04 7.779898e+04 7.779898e+04 7.779898e+04 7.684067e+04 7.684067e+04 8.841828e+04 8.841828e+04 8.841828e+04 8.916216e+04 8.916216e+04 9.656205e+04 9.160774e+04 9.160774e+04 9.160774e+04 9.213178e+04 8.674764e+04 8.674764e+04 8.674764e+04 8.745560e+04 9.071885e+04 9.071885e+04 9.071885e+04 8.098695e+04 7.986654e+04 8.252280e+04 8.252280e+04 8.252280e+04 8.212039e+04 9.153324e+04 9.153324e+04 9.153324e+04 7.542568e+04 7.542568e+04 7.542568e+04 7.615491e+04 7.615491e+04 7.815140e+04 7.815140e+04 7.815140e+04 7.789843e+04 7.667577e+04 7.667577e+04 7.775615e+04 7.775615e+04 7.506947e+04 7.557960e+04 7.577926e+04 8.150309e+04 6.705563e+04 7.512230e+04 7.335027e+04 7.322488e+04 7.322488e+04 8.984501e+04 8.984501e+04 8.984501e+04 8.322862e+04 8.322862e+04 9.364160e+04 9.364160e+04 9.364160e+04 7.201605e+04 7.201605e+04 7.201605e+04 8.540160e+04 8.540160e+04 7.924505e+04 7.924505e+04 8.269264e+04 8.269264e+04 8.269264e+04 7.985076e+04 7.985076e+04 7.985076e+04 7.855009e+04 7.855009e+04 7.855009e+04 7.169224e+04 8.831721e+04 8.831721e+04 8.079235e+04 8.079235e+04 8.224081e+04 8.224081e+04 7.641517e+04 7.641517e+04 7.597665e+04 7.369766e+04 7.369766e+04 7.369766e+04 7.389291e+04 6.751147e+04 6.818976e+04 7.514200e+04 8.583701e+04 8.583701e+04 8.583701e+04 7.745799e+04 7.745799e+04 7.159328e+04 7.159328e+04 7.093094e+04 7.093094e+04 7.094569e+04 7.094569e+04 7.938176e+04 7.938176e+04 7.868000e+04 7.398892e+04 7.398892e+04 8.462763e+04 8.462763e+04 8.462763e+04 7.791988e+04 7.868994e+04 7.542238e+04 8.347201e+04 8.347201e+04 8.347201e+04 8.301483e+04 8.301483e+04 8.301483e+04 8.102926e+04 8.557074e+04 8.557074e+04 8.557074e+04 8.647759e+04 8.647759e+04 8.647759e+04 8.019004e+04 8.019004e+04 7.223491e+04 7.303719e+04 8.256837e+04 8.256837e+04 8.179400e+04 8.179400e+04 8.149995e+04 8.194291e+04 7.678103e+04 8.046724e+04 8.007171e+04 8.007171e+04 7.954263e+04 8.343565e+04 8.621543e+04 8.621543e+04 7.616837e+04 7.569860e+04 8.383515e+04 8.383515e+04 8.575464e+04 8.149221e+04 8.149221e+04 8.086068e+04 8.499591e+04 8.499591e+04 8.499591e+04 8.195573e+04 8.231629e+04 8.457964e+04 8.457964e+04 8.457964e+04 8.682244e+04 8.682244e+04 7.445370e+04 8.053499e+04 7.864148e+04 7.864148e+04 7.900232e+04 8.834432e+04 8.062245e+04 8.062245e+04 8.062245e+04 8.087524e+04 8.146620e+04 8.924504e+04 8.924504e+04 8.924504e+04 8.877240e+04 8.711528e+04 8.711528e+04 8.713285e+04 8.713285e+04 8.326857e+04 7.955619e+04 8.052868e+04 7.997760e+04 8.390963e+04 8.390963e+04 8.390963e+04 8.417551e+04 8.417551e+04 8.831550e+04 8.831550e+04 8.831550e+04 8.141614e+04 8.714933e+04 8.751844e+04 8.751844e+04 8.467881e+04 8.467881e+04 8.310338e+04 8.241586e+04 8.601249e+04 8.601249e+04 8.601249e+04 8.915505e+04 8.915505e+04 9.079476e+04 9.079476e+04 9.079476e+04 8.630465e+04 8.630465e+04 8.566969e+04 8.757398e+04 8.757398e+04 9.231234e+04 9.231234e+04 9.176271e+04 9.176271e+04 8.553958e+04 8.459174e+04 8.459174e+04 9.144848e+04 9.144848e+04 8.299516e+04 8.809548e+04 8.771988e+04 8.771988e+04 8.587834e+04 8.884000e+04 8.884000e+04 8.666936e+04 8.666936e+04 8.666936e+04 8.725597e+04 9.106913e+04 9.106913e+04 9.106913e+04 8.991322e+04 9.072592e+04 8.172295e+04 8.172295e+04 8.172295e+04 8.464633e+04 8.801073e+04 8.944420e+04 8.826578e+04 8.740251e+04 8.588723e+04 8.340384e+04 8.997396e+04 8.997396e+04 9.099588e+04 9.345391e+04 9.345391e+04 9.345391e+04 8.962312e+04 8.968234e+04 8.510146e+04 9.010326e+04 9.051652e+04 9.050404e+04 8.548463e+04 9.121588e+04 9.121588e+04 8.995643e+04 8.657426e+04 9.397732e+04 9.392206e+04 8.761342e+04 8.761342e+04 8.862317e+04 9.207421e+04 9.397732e+04 9.252171e+04 9.252171e+04 9.252171e+04 9.269783e+04 8.806767e+04 9.046185e+04 9.428693e+04 9.331011e+04 9.331011e+04 9.331011e+04 9.274322e+04 9.274322e+04 9.428693e+04 9.122422e+04 9.122422e+04 9.398471e+04 9.011819e+04 9.011819e+04 9.002853e+04 9.124244e+04 9.454601e+04 9.454601e+04 9.454601e+04 9.215951e+04 9.271671e+04 9.271671e+04 9.405495e+04 9.122650e+04 9.122650e+04 9.481364e+04 9.421425e+04 9.437576e+04 9.349111e+04 9.349111e+04 9.317860e+04 9.517919e+04 9.513915e+04 9.513915e+04 9.568872e+04 9.481364e+04 9.481364e+04 9.544070e+04 8.150694e+04 7.446533e+04 7.008305e+04 6.802841e+04 6.802841e+04 7.960170e+04 7.679765e+04 7.679765e+04 7.391538e+04 7.362781e+04 7.091577e+04 7.091577e+04 6.954124e+04 7.315270e+04 6.780808e+04 6.895092e+04 7.061398e+04 8.414136e+04 8.927086e+04 9.238460e+04 7.859945e+04 6.938348e+04 6.961893e+04 7.254097e+04 8.703683e+04 8.706785e+04 9.126805e+04 9.194493e+04 7.865607e+04 9.172961e+04 7.785326e+04 9.203028e+04 9.303228e+04 9.303228e+04 9.303228e+04 9.030205e+04 8.323947e+04 8.323947e+04 8.366635e+04 7.823081e+04 7.723822e+04 7.976453e+04 8.513350e+04 8.021064e+04 8.354686e+04 8.676823e+04 8.740896e+04 8.740896e+04 8.870082e+04 8.998631e+04 8.386377e+04 8.663552e+04 8.663552e+04 8.416719e+04 8.609919e+04 9.044075e+04 8.690485e+04 9.010796e+04 9.071013e+04 8.756583e+04 8.990704e+04 8.958797e+04 8.958797e+04 8.790720e+04 8.903472e+04 8.876921e+04 9.206907e+04 9.238672e+04 9.238672e+04 9.094523e+04 8.719125e+04 9.146895e+04 9.146895e+04 8.959559e+04 9.260490e+04 9.260490e+04 9.201061e+04 9.201061e+04 9.062581e+04 9.126896e+04 8.998761e+04 8.979170e+04 9.311389e+04 9.311389e+04 9.311389e+04 8.790122e+04 9.110356e+04 9.165261e+04 9.301413e+04 9.031560e+04 8.788678e+04 8.846232e+04 9.194367e+04 8.908875e+04 9.128282e+04 9.128282e+04 9.113742e+04 9.266928e+04 9.266928e+04 9.061735e+04 9.061735e+04 9.035918e+04 8.515344e+04 9.155114e+04 9.218810e+04 9.246089e+04 9.359169e+04 9.320857e+04 9.221092e+04 9.138156e+04 9.181808e+04 9.288921e+04 8.922366e+04 8.863064e+04 8.805049e+04 8.757020e+04 8.682314e+04 8.629381e+04 8.570257e+04 8.512389e+04 8.446497e+04 8.396335e+04 8.343862e+04 8.286204e+04 8.239691e+04 8.181532e+04 8.133299e+04 8.086403e+04 8.026061e+04 7.976978e+04 7.929314e+04 7.878570e+04 7.824829e+04 7.777630e+04 7.730558e+04 7.679370e+04 7.634128e+04 7.589825e+04 7.543282e+04 7.500151e+04 7.452247e+04 7.413821e+04 7.372053e+04 7.331570e+04 7.289815e+04 7.248141e+04 7.211622e+04 7.170394e+04 7.132961e+04 7.094863e+04 7.062267e+04 7.022990e+04 6.992219e+04 6.958677e+04 6.917940e+04 6.893365e+04 6.858992e+04 6.825826e+04 6.798310e+04 6.765626e+04 6.742104e+04 6.717522e+04 6.691677e+04 6.667416e+04 6.642325e+04 6.619764e+04 6.600748e+04 6.583031e+04 6.563750e+04 6.542822e+04 6.524370e+04 6.508894e+04 6.494003e+04 6.480080e+04 6.463327e+04 6.455933e+04 6.444848e+04 6.431416e+04 6.421648e+04 6.410866e+04 6.401688e+04 6.395112e+04 6.390586e+04 6.384238e+04 6.376672e+04 6.376384e+04 6.370986e+04 6.373330e+04 6.373185e+04 6.446588e+04 6.518250e+04 6.625484e+04 6.702501e+04 6.702501e+04 6.802841e+04 6.898053e+04 6.954124e+04 7.008305e+04 7.008305e+04 7.091577e+04 7.161793e+04 7.213039e+04 7.263122e+04 7.283172e+04 7.385008e+04 7.407343e+04 7.446533e+04 7.506947e+04 7.550400e+04 7.585737e+04 7.645128e+04 7.682326e+04 7.723822e+04 7.786182e+04 7.786182e+04 7.836156e+04 7.906776e+04 7.924505e+04 7.960170e+04 7.985361e+04 8.021064e+04 8.079235e+04 8.133613e+04 8.150694e+04 8.181017e+04 8.224081e+04 8.243979e+04 8.306449e+04 8.323947e+04 8.354686e+04 8.386377e+04 8.402644e+04 8.463274e+04 8.473384e+04 8.513350e+04 8.540160e+04 8.563418e+04 8.609919e+04 8.620206e+04 8.676823e+04 8.676823e+04 8.703567e+04 8.740896e+04 8.790720e+04 8.790720e+04 8.831721e+04 8.870082e+04 8.870082e+04 8.903472e+04 8.936726e+04 8.958797e+04 8.998631e+04 8.998631e+04 9.044075e+04 9.044075e+04 9.071013e+04 9.094523e+04 9.126896e+04 9.146895e+04 9.165261e+04 9.206907e+04 9.206907e+04 9.238672e+04 9.260094e+04 9.280691e+04 9.312577e+04 9.312577e+04 9.085679e+04 9.085679e+04 9.085679e+04 9.119541e+04 9.741139e+04 9.741139e+04 9.741139e+04 9.384906e+04 9.384906e+04 9.384906e+04 9.485844e+04 8.741753e+04 8.741753e+04 8.741753e+04 8.659754e+04 8.255911e+04 8.255911e+04 8.255911e+04 8.163578e+04 7.085695e+04 7.085695e+04 7.085695e+04 7.108324e+04 7.172565e+04 7.370673e+04 7.370673e+04 7.370673e+04 7.415652e+04 9.099124e+04 9.099124e+04 9.099124e+04 8.405642e+04 8.405642e+04 8.405642e+04 8.445984e+04 8.427272e+04 6.849281e+04 6.849281e+04 6.849281e+04 6.794978e+04 8.826956e+04 8.826956e+04 8.826956e+04 8.905143e+04 8.905143e+04 7.561336e+04 7.561336e+04 7.561336e+04 7.546166e+04 7.547265e+04 6.856810e+04 6.856810e+04 6.856810e+04 6.843102e+04 6.850345e+04 7.720664e+04 7.720664e+04 7.720664e+04 7.715871e+04 6.572566e+04 6.572566e+04 6.572566e+04 8.841048e+04 8.841048e+04 7.738714e+04 7.738714e+04 7.210554e+04 7.210554e+04 7.210554e+04 7.169807e+04 6.699168e+04 6.699168e+04 6.699168e+04 6.652135e+04 6.469545e+04 6.469545e+04 6.524971e+04 6.524971e+04 7.148648e+04 7.148648e+04 7.148648e+04 7.130508e+04 7.130508e+04 6.649540e+04 6.649540e+04 6.649540e+04 6.703924e+04 6.703924e+04 8.915858e+04 7.126839e+04 7.126839e+04 7.126839e+04 7.176808e+04 8.523543e+04 8.523543e+04 8.523543e+04 8.498281e+04 8.498281e+04 8.060791e+04 8.060791e+04 8.060791e+04 8.169965e+04 8.169965e+04 7.706622e+04 7.706622e+04 7.706622e+04 7.695609e+04 7.695609e+04 7.482148e+04 7.482148e+04 7.482148e+04 7.593127e+04 7.593127e+04 8.941293e+04 8.941293e+04 8.941293e+04 8.956791e+04 8.892102e+04 8.892102e+04 8.892102e+04 8.817304e+04 7.990987e+04 7.990987e+04 7.990987e+04 7.899944e+04 7.899944e+04 9.427932e+04 9.427932e+04 9.427932e+04 8.818014e+04 8.818014e+04 8.818014e+04 8.856813e+04 8.856813e+04 9.285988e+04 9.285988e+04 9.285988e+04 9.439541e+04 9.439541e+04 8.631884e+04 8.631884e+04 8.631884e+04 8.742749e+04 7.988429e+04 7.988429e+04 7.309564e+04 7.309564e+04 7.309564e+04 8.551145e+04 8.551145e+04 8.677418e+04 8.677418e+04 8.744177e+04 8.744177e+04 8.744177e+04 8.742081e+04 6.707594e+04 6.707594e+04 6.707594e+04 6.751356e+04 8.755380e+04 8.755380e+04 6.755737e+04 6.755737e+04 6.755737e+04 7.999117e+04 7.999117e+04 7.999117e+04 7.975469e+04 7.975469e+04 6.523429e+04 6.523429e+04 6.523429e+04 6.583913e+04 6.583913e+04 6.432510e+04 6.432510e+04 6.416298e+04 6.436261e+04 6.436261e+04 6.436261e+04 8.010439e+04 8.010439e+04 7.452247e+04 6.724954e+04 6.724954e+04 6.724954e+04 6.528553e+04 7.718408e+04 7.670461e+04 6.933862e+04 6.933862e+04 6.933862e+04 6.596356e+04 6.596356e+04 6.596356e+04 6.446540e+04 6.446540e+04 6.446540e+04 6.823032e+04 6.823032e+04 6.823032e+04 6.908786e+04 6.908786e+04 7.214122e+04 7.214122e+04 7.214122e+04 7.107593e+04 7.107593e+04 7.300422e+04 7.300422e+04 7.360492e+04 7.360492e+04 7.231975e+04 7.231975e+04 7.278586e+04 8.921067e+04 8.921067e+04 8.902407e+04 8.902407e+04 8.898736e+04 8.898736e+04 9.943723e+04 9.879810e+04 9.943723e+04 9.943723e+04 8.336618e+04 8.172348e+04 8.172348e+04 7.308556e+04 7.308556e+04 7.308556e+04 7.163629e+04 7.163629e+04 7.163629e+04 8.696182e+04 7.904411e+04 7.904411e+04 7.843852e+04 7.843852e+04 7.837800e+04 8.063079e+04 7.627280e+04 6.480080e+04 6.547798e+04 6.547798e+04 7.066835e+04 7.066835e+04 7.025948e+04 7.372053e+04 7.434745e+04 7.434745e+04 6.471766e+04 6.471766e+04 6.471766e+04 6.437793e+04 6.454272e+04 8.682314e+04 8.710152e+04 8.710152e+04 7.211622e+04 7.265188e+04 7.265188e+04 8.915858e+04 7.936864e+04 7.936864e+04 7.287054e+04 8.464669e+04 8.464669e+04 8.464669e+04 6.634865e+04 7.156165e+04 7.156165e+04 7.108418e+04 8.140802e+04 8.140802e+04 8.140802e+04 8.210237e+04 8.210237e+04 8.184048e+04 8.375890e+04 8.375890e+04 7.333783e+04 8.512389e+04 8.553131e+04 6.463086e+04 6.463086e+04 6.494935e+04 6.523309e+04 6.517590e+04 6.517590e+04 6.546212e+04 6.563750e+04 6.621995e+04 6.621995e+04 6.728065e+04 8.629381e+04 8.670968e+04 6.517978e+04 7.606106e+04 6.429339e+04 8.362803e+04 8.362803e+04 6.819073e+04 6.810141e+04 6.468110e+04 6.963019e+04 6.963019e+04 6.963019e+04 7.017347e+04 7.017347e+04 8.767146e+04 8.767146e+04 7.406150e+04 8.310594e+04 8.279192e+04 6.522085e+04 6.670942e+04 6.670942e+04 8.825571e+04 7.912565e+04 7.260159e+04 6.933798e+04 8.725239e+04 7.304391e+04 7.355384e+04 7.243564e+04 7.278656e+04 7.278656e+04 7.753554e+04 6.444110e+04 6.993418e+04 7.049759e+04 6.555080e+04 8.659188e+04 8.659188e+04 8.622341e+04 7.296014e+04 7.381399e+04 7.381399e+04 6.656441e+04 8.411996e+04 8.411996e+04 8.411996e+04 8.380823e+04 6.541966e+04 6.525596e+04 8.