<?xml version="1.0"?>
 <VTKFile type="UnstructuredGrid" version="1.0" byte_order="LittleEndian" header_type="UInt64">
  <UnstructuredGrid>
    <FieldData>
     <DataArray type="Float64" Name="TimeValue" NumberOfTuples="1" format="ascii">
8e-05
     </DataArray>
    </FieldData>
   <Piece NumberOfPoints="3468" NumberOfCells="3392">
    <PointData>
     <DataArray type="Float64" Name="pointP" format="ascii">
9.322860e+04 9.332919e+04 9.352811e+04 9.390381e+04 9.396635e+04 9.429862e+04 9.429862e+04 9.447016e+04 9.472209e+04 9.501845e+04 9.501845e+04 9.526846e+04 9.534479e+04 9.567077e+04 9.567077e+04 9.582676e+04 9.598436e+04 9.618580e+04 9.644061e+04 9.651035e+04 9.658256e+04 9.687850e+04 9.700755e+04 9.700755e+04 9.725172e+04 9.735816e+04 9.740469e+04 9.752652e+04 9.777749e+04 9.783831e+04 9.794856e+04 9.805839e+04 9.815229e+04 9.823522e+04 9.833624e+04 9.844133e+04 9.859970e+04 9.873048e+04 9.881463e+04 9.890015e+04 9.898333e+04 9.901721e+04 9.914424e+04 9.926647e+04 9.933189e+04 9.935912e+04 9.947812e+04 9.954995e+04 9.958531e+04 9.965631e+04 9.972418e+04 9.980637e+04 9.992751e+04 9.992751e+04 1.000471e+05 1.000471e+05 1.001203e+05 1.002159e+05 1.002386e+05 1.002793e+05 1.003704e+05 1.004151e+05 1.004151e+05 1.004579e+05 1.005188e+05 1.005416e+05 1.006105e+05 1.006599e+05 1.006599e+05 1.007216e+05 1.007315e+05 1.007615e+05 1.008011e+05 1.008485e+05 1.008485e+05 1.008791e+05 1.009150e+05 1.009348e+05 1.009546e+05 1.009908e+05 1.010088e+05 1.010088e+05 1.010312e+05 1.010560e+05 1.010779e+05 1.010779e+05 1.010923e+05 1.011179e+05 1.011179e+05 1.011417e+05 1.011544e+05 1.011544e+05 1.011639e+05 1.011725e+05 1.011861e+05 1.011893e+05 1.012044e+05 1.012113e+05 1.012113e+05 1.012214e+05 1.012295e+05 1.012295e+05 1.012351e+05 1.012424e+05 1.012462e+05 1.012554e+05 1.012554e+05 1.012629e+05 1.012692e+05 1.012692e+05 1.012780e+05 1.012797e+05 1.012869e+05 1.012909e+05 1.012909e+05 1.012995e+05 1.013029e+05 1.013044e+05 1.013108e+05 1.013131e+05 1.013185e+05 1.013250e+05 1.013250e+05 1.013250e+05 1.013250e+05 1.013250e+05 1.012865e+05 1.012712e+05 1.012941e+05 1.014294e+05 1.021562e+05 1.021562e+05 1.027373e+05 1.027373e+05 1.006325e+05 1.006325e+05 1.006325e+05 1.007022e+05 1.007022e+05 1.013105e+05 1.013105e+05 9.994087e+04 9.994087e+04 9.994087e+04 1.003443e+05 1.003443e+05 1.010451e+05 1.010451e+05 1.010451e+05 1.012886e+05 1.017370e+05 1.017370e+05 1.015877e+05 1.012783e+05 1.012783e+05 1.012783e+05 1.012831e+05 1.012831e+05 1.012742e+05 1.012899e+05 1.012899e+05 1.012825e+05 1.013118e+05 1.012959e+05 1.012936e+05 1.013135e+05 1.013135e+05 1.013175e+05 1.013175e+05 1.013197e+05 1.013217e+05 1.000830e+05 1.000830e+05 1.000830e+05 9.990395e+04 9.990395e+04 9.972386e+04 9.766796e+04 9.766796e+04 9.766796e+04 9.765221e+04 9.769450e+04 1.004564e+05 9.932615e+04 9.932615e+04 9.940449e+04 9.779542e+04 9.779542e+04 9.784145e+04 9.932835e+04 9.932835e+04 9.932835e+04 9.303478e+04 9.303478e+04 9.303478e+04 9.384440e+04 9.384440e+04 9.384440e+04 1.006147e+05 1.006147e+05 1.006147e+05 9.631488e+04 9.631488e+04 9.631488e+04 9.868213e+04 9.868213e+04 9.868213e+04 9.872202e+04 9.586047e+04 9.586047e+04 9.763532e+04 9.763532e+04 9.763532e+04 9.327706e+04 9.351538e+04 9.751377e+04 9.751377e+04 1.001018e+05 1.001018e+05 1.001018e+05 1.002896e+05 1.002896e+05 9.998022e+04 1.002280e+05 1.002280e+05 1.016501e+05 1.016501e+05 1.016501e+05 1.008289e+05 1.008289e+05 9.694529e+04 9.694529e+04 9.694529e+04 9.748773e+04 9.516224e+04 9.635263e+04 9.849618e+04 9.849618e+04 9.801046e+04 9.801046e+04 9.801046e+04 9.573054e+04 9.515528e+04 9.515528e+04 9.672741e+04 9.672741e+04 9.672741e+04 1.003990e+05 1.003990e+05 1.003990e+05 9.757469e+04 9.757469e+04 9.757469e+04 1.017020e+05 1.012341e+05 9.334659e+04 9.334659e+04 9.334659e+04 9.383456e+04 9.931513e+04 9.931513e+04 9.397684e+04 9.824984e+04 9.824984e+04 9.824984e+04 9.356329e+04 9.356329e+04 9.834322e+04 9.834322e+04 9.715151e+04 9.715151e+04 9.715151e+04 9.529624e+04 9.529624e+04 9.529624e+04 9.540312e+04 9.540312e+04 9.540312e+04 9.376146e+04 9.376146e+04 9.849788e+04 9.849788e+04 9.431912e+04 9.431912e+04 9.431912e+04 9.843517e+04 9.896526e+04 9.896526e+04 9.896526e+04 9.395990e+04 9.848496e+04 9.848496e+04 9.686816e+04 9.686816e+04 9.686816e+04 9.944347e+04 9.944347e+04 9.944347e+04 9.548392e+04 9.586987e+04 9.586987e+04 9.586987e+04 9.475129e+04 9.475129e+04 9.475129e+04 9.356151e+04 9.363427e+04 9.651787e+04 9.651787e+04 9.651787e+04 9.675821e+04 9.675821e+04 9.938339e+04 9.938339e+04 9.938339e+04 9.412900e+04 9.412900e+04 9.412900e+04 9.417363e+04 9.422745e+04 9.410985e+04 9.410985e+04 9.889918e+04 9.889918e+04 9.889918e+04 9.473269e+04 9.473269e+04 9.644903e+04 9.644903e+04 9.321722e+04 9.452305e+04 9.452305e+04 9.568437e+04 9.568437e+04 9.568437e+04 9.791884e+04 9.451641e+04 9.531279e+04 9.531279e+04 9.835733e+04 9.835733e+04 9.798769e+04 9.798769e+04 9.798769e+04 9.688142e+04 9.688142e+04 1.001714e+05 1.001714e+05 1.001714e+05 9.955742e+04 9.955742e+04 9.955742e+04 9.753256e+04 9.398288e+04 9.918015e+04 9.918015e+04 9.918015e+04 9.651003e+04 9.651003e+04 9.651003e+04 9.590823e+04 9.587663e+04 9.398288e+04 9.689023e+04 9.973946e+04 9.973946e+04 9.973946e+04 9.726709e+04 9.726709e+04 9.997749e+04 9.997749e+04 9.997749e+04 9.748603e+04 9.748603e+04 9.748603e+04 9.717401e+04 1.002893e+05 1.002893e+05 1.002893e+05 9.749483e+04 9.640969e+04 9.640969e+04 9.699816e+04 9.890485e+04 9.890485e+04 9.716505e+04 9.784435e+04 9.784435e+04 9.801520e+04 9.801520e+04 9.772712e+04 9.683385e+04 9.949374e+04 9.949374e+04 9.949374e+04 9.811426e+04 1.002723e+05 1.002723e+05 9.527789e+04 9.820987e+04 9.820987e+04 9.821877e+04 1.007979e+05 1.007979e+05 1.007979e+05 1.000991e+05 1.000991e+05 9.845240e+04 9.845240e+04 9.865577e+04 9.865577e+04 9.731396e+04 9.991584e+04 9.991584e+04 9.991584e+04 9.924455e+04 9.924455e+04 9.924455e+04 9.635263e+04 9.994618e+04 9.994618e+04 9.922335e+04 9.917232e+04 9.570612e+04 9.713795e+04 9.773192e+04 9.773192e+04 1.004072e+05 1.004072e+05 1.004072e+05 9.870123e+04 1.009686e+05 1.009686e+05 1.009686e+05 9.912272e+04 9.912272e+04 9.879343e+04 9.762792e+04 1.007880e+05 1.007880e+05 1.007880e+05 1.004971e+05 1.004971e+05 1.004971e+05 1.006495e+05 1.006495e+05 1.003190e+05 1.003190e+05 1.002027e+05 1.002027e+05 1.000975e+05 9.816182e+04 9.816182e+04 9.879340e+04 9.879340e+04 9.953945e+04 9.953945e+04 9.808038e+04 1.009519e+05 1.010108e+05 1.010108e+05 1.010108e+05 9.942254e+04 1.005171e+05 1.005171e+05 9.970483e+04 9.970483e+04 1.001557e+05 9.834117e+04 9.946412e+04 1.000915e+05 1.000915e+05 1.002431e+05 1.002431e+05 9.918585e+04 1.010558e+05 1.010558e+05 1.010558e+05 1.011402e+05 1.011402e+05 1.011402e+05 9.974069e+04 9.974069e+04 9.974069e+04 9.948703e+04 9.948703e+04 1.012847e+05 1.012847e+05 1.012847e+05 1.010376e+05 1.010376e+05 1.010376e+05 1.004967e+05 1.010952e+05 1.010952e+05 1.010952e+05 1.006023e+05 1.006023e+05 9.980369e+04 1.010494e+05 1.010494e+05 1.012202e+05 1.012202e+05 1.012202e+05 9.993345e+04 9.993345e+04 1.003953e+05 1.003953e+05 1.007884e+05 1.007884e+05 1.007884e+05 1.012020e+05 1.012020e+05 1.012020e+05 1.007543e+05 1.012071e+05 1.012071e+05 1.012071e+05 1.012917e+05 1.012917e+05 1.012917e+05 1.009119e+05 1.009119e+05 1.009119e+05 1.008014e+05 1.009370e+05 1.009370e+05 1.008294e+05 1.003891e+05 1.003891e+05 1.012900e+05 1.009489e+05 1.009489e+05 1.009489e+05 1.012217e+05 1.012217e+05 1.012217e+05 1.009446e+05 1.009446e+05 1.009446e+05 1.011139e+05 1.011139e+05 1.011139e+05 1.010295e+05 1.010295e+05 1.010719e+05 1.010719e+05 1.011936e+05 1.011936e+05 1.011732e+05 1.011732e+05 1.011732e+05 1.009079e+05 1.009079e+05 1.008285e+05 1.008285e+05 1.012010e+05 1.012078e+05 1.012078e+05 1.010241e+05 1.010241e+05 1.010705e+05 1.012271e+05 1.012271e+05 1.012271e+05 1.011127e+05 1.011127e+05 1.011851e+05 1.011851e+05 1.010818e+05 1.014182e+05 1.014182e+05 1.014182e+05 1.021867e+05 1.021867e+05 1.021867e+05 1.012379e+05 1.012379e+05 1.012547e+05 1.012547e+05 1.012547e+05 1.012178e+05 1.012712e+05 1.012712e+05 1.012349e+05 1.017174e+05 9.574824e+04 1.007445e+05 9.557932e+04 9.848831e+04 1.022497e+05 1.013034e+05 1.013034e+05 1.013034e+05 1.011583e+05 1.011583e+05 1.009730e+05 1.009896e+05 1.013085e+05 1.011025e+05 1.019999e+05 1.005199e+05 1.012622e+05 1.012622e+05 1.012384e+05 1.012384e+05 1.012384e+05 1.012388e+05 1.011193e+05 1.009650e+05 1.009650e+05 1.010071e+05 1.010071e+05 1.010071e+05 1.010101e+05 1.001408e+05 1.000091e+05 9.490367e+04 9.516537e+04 9.516537e+04 9.323467e+04 9.747020e+04 9.747020e+04 1.006576e+05 1.007772e+05 1.012632e+05 1.012632e+05 1.012632e+05 1.012845e+05 1.012845e+05 9.363864e+04 9.363864e+04 9.629305e+04 9.483792e+04 9.382747e+04 9.385039e+04 9.431223e+04 9.431223e+04 9.431223e+04 9.686899e+04 9.491975e+04 9.535504e+04 9.819325e+04 9.707740e+04 9.641937e+04 9.641937e+04 9.641937e+04 9.622534e+04 9.622534e+04 9.365710e+04 9.400189e+04 9.544113e+04 9.346877e+04 9.679280e+04 9.477404e+04 9.452411e+04 9.452411e+04 9.413873e+04 9.590902e+04 9.590902e+04 9.567344e+04 9.451148e+04 9.592091e+04 9.720985e+04 9.727755e+04 9.754759e+04 9.562702e+04 9.562702e+04 9.562702e+04 9.507388e+04 9.507388e+04 9.658619e+04 9.664157e+04 9.522563e+04 9.497390e+04 9.603683e+04 9.421511e+04 9.467434e+04 9.910206e+04 9.669196e+04 9.510283e+04 9.717118e+04 9.569671e+04 9.612732e+04 9.808158e+04 9.802205e+04 9.858204e+04 9.589297e+04 9.438577e+04 9.989120e+04 9.989120e+04 9.501745e+04 9.865157e+04 9.865157e+04 9.697661e+04 9.697661e+04 9.856905e+04 1.000378e+05 9.969410e+04 9.969410e+04 9.969410e+04 9.602450e+04 9.616506e+04 9.616506e+04 9.994718e+04 1.002590e+05 9.709145e+04 9.958482e+04 9.955459e+04 9.955459e+04 9.871712e+04 9.793738e+04 9.817858e+04 9.817858e+04 9.888017e+04 9.882403e+04 9.898747e+04 9.958756e+04 9.958312e+04 1.004394e+05 1.004394e+05 9.791103e+04 9.688197e+04 9.873732e+04 9.873732e+04 9.873732e+04 9.924511e+04 9.962053e+04 9.724915e+04 9.863498e+04 1.001313e+05 1.001313e+05 1.001313e+05 9.829613e+04 9.829613e+04 9.979803e+04 9.918307e+04 1.005031e+05 9.900957e+04 1.003703e+05 1.006035e+05 1.006035e+05 1.001871e+05 1.000556e+05 9.928803e+04 9.976478e+04 9.979552e+04 9.947236e+04 1.005261e+05 1.005261e+05 1.005261e+05 1.002406e+05 9.883388e+04 9.933071e+04 1.005635e+05 9.839604e+04 9.904541e+04 9.904541e+04 1.007000e+05 1.006699e+05 1.011253e+05 1.011253e+05 9.916352e+04 1.009362e+05 1.009362e+05 1.009018e+05 1.005998e+05 1.005998e+05 1.008863e+05 1.008863e+05 9.965847e+04 1.007301e+05 1.009484e+05 1.009789e+05 1.009789e+05 9.946508e+04 1.003562e+05 1.003562e+05 1.006538e+05 1.006538e+05 1.006538e+05 9.990337e+04 9.990337e+04 1.001973e+05 1.008411e+05 1.008411e+05 1.011066e+05 1.010705e+05 1.009377e+05 1.003523e+05 1.007508e+05 1.004041e+05 1.004797e+05 1.006233e+05 1.005957e+05 1.009965e+05 1.011712e+05 1.011712e+05 1.011712e+05 1.009758e+05 1.010287e+05 1.010752e+05 1.010752e+05 1.010752e+05 1.008446e+05 1.007168e+05 1.007168e+05 1.007168e+05 1.011526e+05 1.001867e+05 1.011787e+05 1.011787e+05 1.010112e+05 1.004002e+05 9.988787e+04 1.003147e+05 1.007267e+05 1.012804e+05 1.012804e+05 1.008165e+05 1.005215e+05 1.010913e+05 1.002671e+05 1.008932e+05 1.008932e+05 1.008932e+05 1.011420e+05 1.011110e+05 1.011110e+05 1.011110e+05 1.012006e+05 1.012006e+05 1.011572e+05 1.007875e+05 1.012455e+05 1.012430e+05 1.010481e+05 1.010928e+05 1.010928e+05 1.012322e+05 1.012322e+05 1.004555e+05 1.011259e+05 1.012129e+05 1.012129e+05 1.011649e+05 1.011649e+05 9.985871e+04 1.010603e+05 1.009136e+05 1.012583e+05 1.012583e+05 1.012499e+05 1.012499e+05 1.012499e+05 1.012606e+05 1.012364e+05 1.012364e+05 1.010197e+05 1.008268e+05 1.008788e+05 1.011374e+05 1.011466e+05 1.011466e+05 1.012559e+05 1.010929e+05 1.011891e+05 1.011362e+05 1.011610e+05 1.011610e+05 1.011094e+05 1.010761e+05 1.012058e+05 1.012058e+05 1.012414e+05 1.012414e+05 1.011724e+05 1.011724e+05 1.013095e+05 1.012763e+05 1.013044e+05 1.012910e+05 1.007895e+05 1.007895e+05 1.012131e+05 1.012666e+05 1.012666e+05 1.012696e+05 1.012696e+05 1.012948e+05 1.012948e+05 1.012471e+05 1.008905e+05 1.008632e+05 1.012004e+05 1.011398e+05 1.012678e+05 1.011901e+05 1.011838e+05 1.012727e+05 1.012727e+05 1.006300e+05 1.012261e+05 1.012261e+05 1.012261e+05 1.012288e+05 1.013025e+05 1.012963e+05 1.011300e+05 1.009037e+05 1.011731e+05 1.011682e+05 1.012568e+05 1.012994e+05 1.010581e+05 1.013043e+05 1.012776e+05 1.011842e+05 1.012631e+05 1.012111e+05 1.012850e+05 1.012634e+05 1.012545e+05 1.012505e+05 1.012577e+05 1.011353e+05 1.011788e+05 1.012301e+05 1.012179e+05 1.012179e+05 1.012537e+05 1.012537e+05 1.012834e+05 1.012834e+05 1.012349e+05 1.012736e+05 1.012665e+05 1.013250e+05 1.013250e+05 1.013250e+05 1.013250e+05 1.013113e+05 1.012893e+05 1.012724e+05 1.012936e+05 1.014296e+05 1.021644e+05 1.036946e+05 1.012876e+05 1.012876e+05 1.012876e+05 1.012538e+05 1.014228e+05 1.011410e+05 1.011749e+05 1.012588e+05 1.012588e+05 1.012588e+05 1.012570e+05 1.010773e+05 1.010773e+05 1.010773e+05 1.010859e+05 1.023047e+05 1.023047e+05 1.023047e+05 1.022670e+05 1.022670e+05 1.012863e+05 1.012863e+05 1.012863e+05 1.012955e+05 1.012955e+05 1.019093e+05 1.012805e+05 1.012805e+05 1.012897e+05 1.012708e+05 1.012708e+05 1.012722e+05 1.010744e+05 1.013021e+05 1.013021e+05 1.013021e+05 1.013141e+05 1.013141e+05 1.013141e+05 1.013164e+05 1.012909e+05 1.012944e+05 1.012944e+05 1.012944e+05 1.022000e+05 1.025695e+05 1.022000e+05 1.022000e+05 1.012966e+05 1.013002e+05 1.034894e+05 1.039262e+05 1.034894e+05 1.034894e+05 1.012133e+05 1.012093e+05 1.012093e+05 1.012093e+05 1.012171e+05 1.013191e+05 1.013191e+05 1.013113e+05 1.048402e+05 1.012924e+05 1.012924e+05 1.013052e+05 1.011927e+05 1.011927e+05 1.030330e+05 9.778360e+04 9.778360e+04 9.778360e+04 9.783831e+04 1.001864e+05 1.001864e+05 1.001864e+05 1.002333e+05 1.002333e+05 1.010843e+05 1.010843e+05 1.010843e+05 1.010592e+05 1.010592e+05 9.952685e+04 9.952685e+04 9.952685e+04 9.941722e+04 1.010147e+05 1.010147e+05 1.010147e+05 1.010254e+05 1.002428e+05 1.002428e+05 1.002428e+05 1.002660e+05 1.002826e+05 1.002876e+05 9.865190e+04 9.865190e+04 9.865190e+04 9.860628e+04 9.860887e+04 9.954995e+04 9.954995e+04 9.983295e+04 9.983295e+04 9.983295e+04 9.836878e+04 9.836878e+04 9.836878e+04 9.770263e+04 9.770263e+04 9.770263e+04 1.009572e+05 1.009572e+05 1.008525e+05 1.008525e+05 1.011472e+05 1.011472e+05 1.011472e+05 1.011417e+05 9.572667e+04 9.572667e+04 9.572667e+04 1.003753e+05 1.003753e+05 1.003753e+05 9.790861e+04 9.790861e+04 9.790861e+04 9.975849e+04 9.975849e+04 9.975849e+04 9.707305e+04 9.707305e+04 9.707305e+04 9.676225e+04 9.676225e+04 9.555305e+04 9.555305e+04 9.462415e+04 9.462415e+04 9.462415e+04 9.745656e+04 9.745656e+04 9.745656e+04 9.902729e+04 9.902729e+04 9.902729e+04 9.848399e+04 9.741740e+04 1.009940e+05 1.009940e+05 1.009940e+05 1.005632e+05 1.005632e+05 1.005632e+05 9.995484e+04 9.995484e+04 1.018270e+05 1.018270e+05 1.016577e+05 1.005549e+05 1.005549e+05 1.005549e+05 1.004876e+05 1.004876e+05 1.004876e+05 9.828531e+04 9.857045e+04 9.967627e+04 9.967627e+04 9.967627e+04 1.009177e+05 1.009177e+05 1.009177e+05 9.979133e+04 9.694434e+04 9.748856e+04 9.748856e+04 9.748856e+04 9.470219e+04 9.470219e+04 9.470219e+04 9.814290e+04 9.814290e+04 9.852110e+04 9.852110e+04 9.951656e+04 9.990395e+04 9.990395e+04 1.009957e+05 1.009957e+05 1.009957e+05 1.009193e+05 1.010701e+05 1.010701e+05 1.012717e+05 1.012717e+05 1.012717e+05 9.397351e+04 9.623818e+04 9.623818e+04 9.623818e+04 9.479509e+04 9.479509e+04 9.454929e+04 9.898333e+04 9.898333e+04 9.502099e+04 9.502099e+04 9.798779e+04 9.798779e+04 9.798779e+04 9.440792e+04 9.531643e+04 9.531643e+04 9.531643e+04 9.684982e+04 9.684982e+04 9.684982e+04 9.557953e+04 9.557953e+04 9.740743e+04 9.740743e+04 9.740743e+04 9.754949e+04 9.594507e+04 9.594507e+04 9.594507e+04 9.692899e+04 9.692899e+04 9.692899e+04 9.411122e+04 9.411122e+04 9.411122e+04 9.445011e+04 9.445011e+04 9.448338e+04 9.624022e+04 9.624022e+04 9.624679e+04 9.624679e+04 9.517419e+04 9.517419e+04 9.659227e+04 9.448338e+04 9.448338e+04 9.885460e+04 9.885460e+04 9.885460e+04 9.568245e+04 9.483849e+04 9.478097e+04 9.723113e+04 9.723113e+04 9.905823e+04 9.905823e+04 9.905823e+04 9.878396e+04 9.839274e+04 1.006370e+05 1.006370e+05 1.006370e+05 9.493816e+04 9.956329e+04 9.956329e+04 9.956329e+04 9.790588e+04 9.790588e+04 9.790588e+04 9.586801e+04 1.007291e+05 1.007291e+05 1.007291e+05 9.910533e+04 9.863397e+04 9.863397e+04 9.863397e+04 9.885133e+04 9.525055e+04 9.473764e+04 1.008245e+05 1.008245e+05 1.008245e+05 9.643032e+04 9.643032e+04 9.533314e+04 9.533314e+04 9.585974e+04 9.617878e+04 9.983114e+04 9.655867e+04 9.806062e+04 9.806062e+04 1.000142e+05 1.000142e+05 1.000142e+05 1.009052e+05 1.009052e+05 1.009052e+05 9.941373e+04 9.941373e+04 9.941373e+04 1.008284e+05 1.008284e+05 9.791299e+04 9.791299e+04 9.825611e+04 9.825611e+04 9.914864e+04 9.914864e+04 9.914864e+04 9.680838e+04 9.680838e+04 9.565461e+04 9.565461e+04 9.901588e+04 9.901588e+04 9.594091e+04 9.594091e+04 9.594091e+04 9.756923e+04 1.008851e+05 1.008851e+05 9.961050e+04 9.934813e+04 9.934813e+04 9.934813e+04 9.632324e+04 9.730539e+04 1.000143e+05 1.000143e+05 1.000143e+05 1.001245e+05 1.001245e+05 9.888877e+04 9.888877e+04 9.888877e+04 9.645409e+04 1.003749e+05 1.003749e+05 1.003749e+05 9.877290e+04 9.920949e+04 1.001890e+05 1.005559e+05 1.005559e+05 1.006336e+05 1.006336e+05 9.932842e+04 1.000565e+05 1.000565e+05 1.000565e+05 9.959818e+04 9.790849e+04 9.790849e+04 1.001681e+05 1.001681e+05 1.003459e+05 1.003459e+05 1.010411e+05 1.010411e+05 9.907036e+04 9.741740e+04 1.004919e+05 1.004919e+05 1.004919e+05 9.814013e+04 9.837512e+04 1.011337e+05 1.011337e+05 1.011337e+05 1.000236e+05 9.902484e+04 9.902484e+04 9.876602e+04 1.011975e+05 1.011975e+05 1.011975e+05 1.002275e+05 9.863243e+04 9.896251e+04 1.011452e+05 1.011452e+05 1.007824e+05 1.007824e+05 1.007824e+05 1.008383e+05 1.008383e+05 1.008383e+05 9.929094e+04 9.972596e+04 1.012041e+05 1.012041e+05 1.012041e+05 1.005810e+05 1.005810e+05 1.005810e+05 1.005610e+05 1.011909e+05 1.011909e+05 1.011909e+05 1.001671e+05 1.013731e+05 1.006098e+05 1.008899e+05 1.008899e+05 1.000078e+05 1.000623e+05 1.002027e+05 1.012259e+05 1.012259e+05 1.012259e+05 1.011523e+05 1.012819e+05 1.012819e+05 1.012819e+05 1.009365e+05 1.007323e+05 1.007323e+05 1.007012e+05 1.007227e+05 1.013289e+05 1.013289e+05 1.002830e+05 1.002830e+05 1.011630e+05 1.011146e+05 1.011146e+05 1.011369e+05 1.007423e+05 1.007423e+05 1.005927e+05 1.004962e+05 1.012578e+05 1.012578e+05 1.014405e+05 1.012072e+05 1.012072e+05 1.009115e+05 1.013099e+05 1.011201e+05 1.011201e+05 1.011648e+05 1.011854e+05 1.011854e+05 1.011854e+05 1.010745e+05 1.029382e+05 1.029382e+05 1.010846e+05 1.010846e+05 1.013018e+05 1.012277e+05 1.012780e+05 1.012780e+05 1.012192e+05 1.012342e+05 1.012342e+05 1.009413e+05 1.001345e+05 1.005076e+05 1.005379e+05 1.005379e+05 1.012444e+05 1.006942e+05 1.004960e+05 1.004960e+05 9.397351e+04 9.397351e+04 1.009234e+05 9.974922e+04 1.011568e+05 1.011568e+05 1.008786e+05 1.006252e+05 1.002566e+05 1.002566e+05 9.855189e+04 9.965353e+04 9.618580e+04 1.008011e+05 1.012554e+05 1.012797e+05 1.012797e+05 1.012869e+05 9.396635e+04 9.396635e+04 9.429862e+04 9.453139e+04 9.453139e+04 9.322860e+04 9.331970e+04 9.322860e+04 9.411735e+04 9.628471e+04 9.343043e+04 9.375546e+04 9.375546e+04 9.375546e+04 9.501845e+04 9.535970e+04 9.535970e+04 9.535970e+04 9.526846e+04 9.526846e+04 9.354253e+04 9.651035e+04 9.651035e+04 9.567077e+04 9.582676e+04 9.487644e+04 9.487644e+04 9.598436e+04 9.805839e+04 9.663709e+04 9.589231e+04 9.700755e+04 9.366811e+04 9.366811e+04 9.558548e+04 9.343281e+04 9.604245e+04 9.443886e+04 9.411617e+04 9.735816e+04 9.735816e+04 9.815229e+04 9.725172e+04 9.820525e+04 9.653013e+04 9.561486e+04 9.520908e+04 9.706719e+04 9.756680e+04 9.756680e+04 9.756680e+04 9.759933e+04 9.608549e+04 9.625870e+04 9.570465e+04 9.570465e+04 9.678576e+04 9.933189e+04 9.933189e+04 9.677548e+04 9.538852e+04 9.697793e+04 9.758376e+04 9.881463e+04 9.881463e+04 9.655640e+04 9.655640e+04 9.655640e+04 9.829137e+04 9.829137e+04 9.634627e+04 9.833624e+04 9.766914e+04 9.922065e+04 9.922065e+04 9.922065e+04 9.685448e+04 9.914080e+04 9.914080e+04 9.813643e+04 9.771132e+04 1.001203e+05 1.001203e+05 9.844133e+04 9.859970e+04 9.859970e+04 1.000471e+05 9.873048e+04 9.594175e+04 9.817118e+04 9.900651e+04 9.854618e+04 9.854618e+04 9.984993e+04 9.984993e+04 9.984993e+04 9.717593e+04 9.965631e+04 9.947812e+04 9.711040e+04 9.736556e+04 9.859466e+04 9.868832e+04 9.940268e+04 9.956365e+04 9.956365e+04 9.819251e+04 9.819251e+04 9.788234e+04 9.785408e+04 9.655241e+04 9.840879e+04 9.889847e+04 9.738093e+04 9.798145e+04 9.992751e+04 9.970701e+04 9.970701e+04 9.970701e+04 1.003070e+05 9.781100e+04 9.935744e+04 9.935744e+04 1.004151e+05 9.981472e+04 1.006105e+05 1.006105e+05 1.003941e+05 9.991478e+04 1.000272e+05 1.000272e+05 1.007216e+05 1.005188e+05 1.005188e+05 1.001114e+05 9.981510e+04 1.004579e+05 1.006026e+05 9.953200e+04 9.917435e+04 9.929558e+04 9.996547e+04 9.916626e+04 1.007478e+05 1.005824e+05 1.004920e+05 1.005510e+05 1.004299e+05 9.973475e+04 1.009150e+05 1.009150e+05 1.009348e+05 1.009308e+05 9.873751e+04 1.006498e+05 1.006498e+05 1.009502e+05 1.009502e+05 1.009577e+05 9.988963e+04 1.010776e+05 1.000529e+05 1.006746e+05 1.008003e+05 9.998168e+04 1.008485e+05 9.950034e+04 1.007110e+05 1.007110e+05 1.009908e+05 1.003972e+05 1.011861e+05 1.011861e+05 1.011544e+05 1.010039e+05 1.004381e+05 9.930354e+04 1.011417e+05 1.002543e+05 1.010656e+05 1.010656e+05 1.010779e+05 1.010560e+05 1.009541e+05 1.011179e+05 1.011224e+05 1.005674e+05 1.011312e+05 1.008761e+05 1.008761e+05 1.007954e+05 1.011639e+05 1.011725e+05 9.826672e+04 1.012113e+05 1.010264e+05 1.012295e+05 1.007318e+05 1.012591e+05 1.012591e+05 1.010923e+05 1.011468e+05 1.006151e+05 1.006151e+05 1.012489e+05 1.012489e+05 1.012489e+05 1.008352e+05 1.011873e+05 1.009864e+05 9.956429e+04 1.010865e+05 1.012044e+05 9.939423e+04 1.012214e+05 1.012214e+05 1.011708e+05 1.003435e+05 1.011845e+05 1.011118e+05 1.012015e+05 1.011196e+05 1.012024e+05 1.012138e+05 1.012138e+05 1.009628e+05 1.009561e+05 1.012604e+05 1.011470e+05 1.009976e+05 1.009976e+05 1.009976e+05 1.010945e+05 1.012627e+05 1.012321e+05 1.012397e+05 1.012397e+05 1.012397e+05 1.012692e+05 1.011065e+05 1.011065e+05 1.012513e+05 1.012569e+05 1.012136e+05 1.012424e+05 1.012227e+05 1.012796e+05 1.013108e+05 1.012645e+05 1.012614e+05 1.010164e+05 1.012713e+05 1.012852e+05 1.010617e+05 1.011778e+05 1.011778e+05 1.012280e+05 1.012280e+05 1.012385e+05 1.012173e+05 1.012557e+05 1.011597e+05 1.012138e+05 1.012402e+05 1.012443e+05 1.013029e+05 1.003332e+05 1.012661e+05 1.012502e+05 1.012380e+05 1.012400e+05 1.012729e+05 1.012100e+05 1.012387e+05 1.012305e+05 1.006715e+05 1.012851e+05 1.013185e+05 1.012433e+05 1.012433e+05 1.012707e+05 1.012707e+05 1.008299e+05 1.008299e+05 1.012867e+05 1.012421e+05 1.012249e+05 1.012897e+05 1.012238e+05 1.011300e+05 1.010615e+05 1.012950e+05 1.012462e+05 1.012724e+05 1.012742e+05 1.012650e+05 1.013148e+05 1.013200e+05 1.013152e+05 9.322860e+04 9.332919e+04 9.352811e+04 9.390381e+04 9.396635e+04 9.429862e+04 9.429862e+04 9.447016e+04 9.472209e+04 9.501845e+04 9.501845e+04 9.526846e+04 9.534479e+04 9.567077e+04 9.567077e+04 9.582676e+04 9.598436e+04 9.618580e+04 9.644061e+04 9.651035e+04 9.658256e+04 9.687850e+04 9.700755e+04 9.700755e+04 9.725172e+04 9.735816e+04 9.740469e+04 9.752652e+04 9.777749e+04 9.783831e+04 9.794856e+04 9.805839e+04 9.815229e+04 9.823522e+04 9.833624e+04 9.844133e+04 9.859970e+04 9.873048e+04 9.881463e+04 9.890015e+04 9.898333e+04 9.901721e+04 9.914424e+04 9.926647e+04 9.933189e+04 9.935912e+04 9.947812e+04 9.954995e+04 9.958531e+04 9.965631e+04 9.972418e+04 9.980637e+04 9.992751e+04 9.992751e+04 1.000471e+05 1.000471e+05 1.001203e+05 1.002159e+05 1.002386e+05 1.002793e+05 1.003704e+05 1.004151e+05 1.004151e+05 1.004579e+05 1.005188e+05 1.005416e+05 1.006105e+05 1.006599e+05 1.006599e+05 1.007216e+05 1.007315e+05 1.007615e+05 1.008011e+05 1.008485e+05 1.008485e+05 1.008791e+05 1.009150e+05 1.009348e+05 1.009546e+05 1.009908e+05 1.010088e+05 1.010088e+05 1.010312e+05 1.010560e+05 1.010779e+05 1.010779e+05 1.010923e+05 1.011179e+05 1.011179e+05 1.011417e+05 1.011544e+05 1.011544e+05 1.011639e+05 1.011725e+05 1.011861e+05 1.011893e+05 1.012044e+05 1.012113e+05 1.012113e+05 1.012214e+05 1.012295e+05 1.012295e+05 1.012351e+05 1.012424e+05 1.012462e+05 1.012554e+05 1.012554e+05 1.012629e+05 1.012692e+05 1.012692e+05 1.012780e+05 1.012797e+05 1.012869e+05 1.012909e+05 1.012909e+05 1.012995e+05 1.013029e+05 1.013044e+05 1.013108e+05 1.013131e+05 1.013185e+05 1.013250e+05 1.013250e+05 1.013250e+05 1.013250e+05 1.013250e+05 1.013118e+05 1.012865e+05 1.012736e+05 1.012941e+05 1.017370e+05 1.027373e+05 1.027373e+05 1.027373e+05 1.006325e+05 1.006325e+05 1.006325e+05 1.007022e+05 1.007022e+05 1.013105e+05 1.013105e+05 9.994087e+04 9.994087e+04 9.994087e+04 1.003443e+05 1.003443e+05 1.010451e+05 1.010451e+05 1.010451e+05 1.012886e+05 1.017370e+05 1.017370e+05 1.015877e+05 1.012783e+05 1.012783e+05 1.012783e+05 1.012831e+05 1.012831e+05 1.012742e+05 1.012899e+05 1.012899e+05 1.012825e+05 1.013118e+05 1.012959e+05 1.012936e+05 1.013135e+05 1.013135e+05 1.013175e+05 1.013175e+05 1.013197e+05 1.013217e+05 1.000830e+05 1.000830e+05 1.000830e+05 9.990395e+04 9.990395e+04 9.972386e+04 9.766796e+04 9.766796e+04 9.766796e+04 9.765221e+04 9.769450e+04 1.004564e+05 9.932615e+04 9.932615e+04 9.940449e+04 9.779542e+04 9.779542e+04 9.784145e+04 9.932835e+04 9.932835e+04 9.932835e+04 9.303478e+04 9.303478e+04 9.303478e+04 9.384440e+04 9.384440e+04 9.384440e+04 1.006147e+05 1.006147e+05 1.006147e+05 9.631488e+04 9.631488e+04 9.631488e+04 9.868213e+04 9.868213e+04 9.868213e+04 9.872202e+04 9.586047e+04 9.586047e+04 9.763532e+04 9.763532e+04 9.763532e+04 9.327706e+04 9.351538e+04 9.751377e+04 9.751377e+04 1.001018e+05 1.001018e+05 1.001018e+05 1.002896e+05 1.002896e+05 9.998022e+04 1.002280e+05 1.002280e+05 1.016501e+05 1.016501e+05 1.016501e+05 1.008289e+05 1.008289e+05 9.694529e+04 9.694529e+04 9.694529e+04 9.748773e+04 9.516224e+04 9.635263e+04 9.849618e+04 9.849618e+04 9.801046e+04 9.801046e+04 9.801046e+04 9.573054e+04 9.515528e+04 9.515528e+04 9.672741e+04 9.672741e+04 9.672741e+04 1.003990e+05 1.003990e+05 1.003990e+05 9.757469e+04 9.757469e+04 9.757469e+04 1.017020e+05 1.012341e+05 9.334659e+04 9.334659e+04 9.334659e+04 9.383456e+04 9.931513e+04 9.931513e+04 9.397684e+04 9.824984e+04 9.824984e+04 9.824984e+04 9.356329e+04 9.356329e+04 9.834322e+04 9.834322e+04 9.715151e+04 9.715151e+04 9.715151e+04 9.529624e+04 9.529624e+04 9.529624e+04 9.540312e+04 9.540312e+04 9.540312e+04 9.376146e+04 9.376146e+04 9.849788e+04 9.849788e+04 9.431912e+04 9.431912e+04 9.431912e+04 9.843517e+04 9.896526e+04 9.896526e+04 9.896526e+04 9.395990e+04 9.848496e+04 9.848496e+04 9.686816e+04 9.686816e+04 9.686816e+04 9.944347e+04 9.944347e+04 9.944347e+04 9.548392e+04 9.586987e+04 9.586987e+04 9.586987e+04 9.475129e+04 9.475129e+04 9.475129e+04 9.356151e+04 9.363427e+04 9.651787e+04 9.651787e+04 9.651787e+04 9.675821e+04 9.675821e+04 9.938339e+04 9.938339e+04 9.938339e+04 9.412900e+04 9.412900e+04 9.412900e+04 9.417363e+04 9.422745e+04 9.410985e+04 9.410985e+04 9.889918e+04 9.889918e+04 9.889918e+04 9.473269e+04 9.473269e+04 9.644903e+04 9.644903e+04 9.321722e+04 9.452305e+04 9.452305e+04 9.568437e+04 9.568437e+04 9.568437e+04 9.791884e+04 9.451641e+04 9.531279e+04 9.531279e+04 9.835733e+04 9.835733e+04 9.798769e+04 9.798769e+04 9.798769e+04 9.688142e+04 9.688142e+04 1.001714e+05 1.001714e+05 1.001714e+05 9.955742e+04 9.955742e+04 9.955742e+04 9.753256e+04 9.398288e+04 9.918015e+04 9.918015e+04 9.918015e+04 9.651003e+04 9.651003e+04 9.651003e+04 9.590823e+04 9.587663e+04 9.398288e+04 9.689023e+04 9.973946e+04 9.973946e+04 9.973946e+04 9.726709e+04 9.726709e+04 9.997749e+04 9.997749e+04 9.997749e+04 9.748603e+04 9.748603e+04 9.748603e+04 9.717401e+04 1.002893e+05 1.002893e+05 1.002893e+05 9.749483e+04 9.640969e+04 9.640969e+04 9.699816e+04 9.890485e+04 9.890485e+04 9.716505e+04 9.784435e+04 9.784435e+04 9.801520e+04 9.801520e+04 9.772712e+04 9.683385e+04 9.949374e+04 9.949374e+04 9.949374e+04 9.811426e+04 1.002723e+05 1.002723e+05 9.527789e+04 9.820987e+04 9.820987e+04 9.821877e+04 1.007979e+05 1.007979e+05 1.007979e+05 1.000991e+05 1.000991e+05 9.845240e+04 9.845240e+04 9.865577e+04 9.865577e+04 9.731396e+04 9.991584e+04 9.991584e+04 9.991584e+04 9.924455e+04 9.924455e+04 9.924455e+04 9.635263e+04 9.994618e+04 9.994618e+04 9.922335e+04 9.917232e+04 9.570612e+04 9.713795e+04 9.773192e+04 9.773192e+04 1.004072e+05 1.004072e+05 1.004072e+05 9.870123e+04 1.009686e+05 1.009686e+05 1.009686e+05 9.912272e+04 9.912272e+04 9.879343e+04 9.762792e+04 1.007880e+05 1.007880e+05 1.007880e+05 1.004971e+05 1.004971e+05 1.004971e+05 1.006495e+05 1.006495e+05 1.003190e+05 1.003190e+05 1.002027e+05 1.002027e+05 1.000975e+05 9.816182e+04 9.816182e+04 9.879340e+04 9.879340e+04 9.953945e+04 9.953945e+04 9.808038e+04 1.009519e+05 1.010108e+05 1.010108e+05 1.010108e+05 9.942254e+04 1.005171e+05 1.005171e+05 9.970483e+04 9.970483e+04 1.001557e+05 9.834117e+04 9.946412e+04 1.000915e+05 1.000915e+05 1.002431e+05 1.002431e+05 9.918585e+04 1.010558e+05 1.010558e+05 1.010558e+05 1.011402e+05 1.011402e+05 1.011402e+05 9.974069e+04 9.974069e+04 9.974069e+04 9.948703e+04 9.948703e+04 1.012847e+05 1.012847e+05 1.012847e+05 1.010376e+05 1.010376e+05 1.010376e+05 1.004967e+05 1.010952e+05 1.010952e+05 1.010952e+05 1.006023e+05 1.006023e+05 9.980369e+04 1.010494e+05 1.010494e+05 1.012202e+05 1.012202e+05 1.012202e+05 9.993345e+04 9.993345e+04 1.003953e+05 1.003953e+05 1.007884e+05 1.007884e+05 1.007884e+05 1.012020e+05 1.012020e+05 1.012020e+05 1.007543e+05 1.012071e+05 1.012071e+05 1.012071e+05 1.012917e+05 1.012917e+05 1.012917e+05 1.009119e+05 1.009119e+05 1.009119e+05 1.008014e+05 1.009370e+05 1.009370e+05 1.008294e+05 1.003891e+05 1.003891e+05 1.012900e+05 1.009489e+05 1.009489e+05 1.009489e+05 1.012217e+05 1.012217e+05 1.012217e+05 1.009446e+05 1.009446e+05 1.009446e+05 1.011139e+05 1.011139e+05 1.