<?xml version="1.0"?>
 <VTKFile type="UnstructuredGrid" version="1.0" byte_order="LittleEndian" header_type="UInt64">
  <UnstructuredGrid>
    <FieldData>
     <DataArray type="Float64" Name="TimeValue" NumberOfTuples="1" format="ascii">
0.00034
     </DataArray>
    </FieldData>
   <Piece NumberOfPoints="3632" NumberOfCells="3379">
    <PointData>
     <DataArray type="Float64" Name="pointP" format="ascii">
9.696141e+05 9.696141e+05 9.669822e+05 9.657099e+05 9.623984e+05 9.594118e+05 9.519317e+05 9.470809e+05 9.416621e+05 9.348441e+05 9.295309e+05 9.229791e+05 9.156809e+05 9.090442e+05 9.034195e+05 8.933603e+05 8.875482e+05 8.798949e+05 8.764973e+05 8.687193e+05 8.625135e+05 8.539927e+05 8.451739e+05 8.362017e+05 8.247096e+05 8.193717e+05 8.106957e+05 8.026013e+05 7.928075e+05 7.826888e+05 7.754135e+05 7.648817e+05 7.547094e+05 7.434049e+05 7.327229e+05 7.252138e+05 7.163786e+05 7.051611e+05 6.970590e+05 6.886157e+05 6.779501e+05 6.664880e+05 6.557664e+05 6.433451e+05 6.336864e+05 6.234997e+05 6.107893e+05 5.973113e+05 5.858800e+05 5.742236e+05 5.621860e+05 5.503048e+05 5.391940e+05 5.263719e+05 5.115403e+05 5.004469e+05 4.855269e+05 4.750753e+05 4.631349e+05 4.510874e+05 4.395638e+05 4.270895e+05 4.149131e+05 4.047535e+05 3.946546e+05 3.831383e+05 3.704776e+05 3.601384e+05 3.485197e+05 3.372649e+05 3.245193e+05 3.155282e+05 3.045329e+05 2.937415e+05 2.821316e+05 2.731802e+05 2.619394e+05 2.514970e+05 2.415128e+05 2.313988e+05 2.198647e+05 2.102683e+05 1.999483e+05 1.908864e+05 1.811786e+05 1.712719e+05 1.616727e+05 1.528554e+05 1.426619e+05 1.341051e+05 1.257356e+05 1.172629e+05 1.088894e+05 1.011487e+05 9.326257e+04 8.551031e+04 7.833127e+04 7.183724e+04 6.464279e+04 5.666377e+04 5.037456e+04 4.434558e+04 3.903318e+04 3.290435e+04 2.733196e+04 2.213248e+04 1.787588e+04 1.343134e+04 8.826331e+03 5.305489e+03 1.306694e+03 -1.944555e+02 -5.274647e+03 -1.027204e+04 -1.316024e+04 -1.481475e+04 -1.644668e+04 -1.933503e+04 -2.149423e+04 -2.443831e+04 -2.427952e+04 -2.448968e+04 -2.058160e+04 -2.307702e+04 -2.453934e+04 -2.325710e+04 -2.234412e+04 -1.690294e+04 -1.163856e+04 -1.802763e+04 -1.974103e+04 -1.717359e+04 -1.967251e+04 -1.326931e+04 -1.951625e+04 -1.866317e+04 -1.201936e+04 -1.540294e+04 -9.479744e+03 -5.359902e+03 -1.077353e+04 -9.929682e+03 -7.604112e+03 -2.846861e+03 2.306819e+03 -1.207524e+04 -1.501671e+03 -6.903906e+03 -7.791504e+02 -1.065912e+04 -1.081920e+04 -5.144471e+03 -4.272275e+01 -1.289511e+04 -1.921919e+04 2.073136e+03 -2.465007e+03 -4.829682e+02 -2.653587e+03 -1.535325e+04 -4.367241e+03 -1.015962e+04 -6.526429e+03 1.182685e+03 1.307839e+03 -1.361401e+04 -1.483528e+04 -2.140994e+04 -1.258733e+04 -3.234471e+04 -2.302657e+04 -5.829172e+03 -7.634185e+03 -2.653613e+03 -7.817800e+03 -3.215201e+03 -2.542940e+04 -1.952587e+04 -1.886912e+03 4.532783e+02 -8.381705e+04 1.104133e+05 1.104133e+05 1.104133e+05 1.279960e+05 1.279960e+05 1.279960e+05 1.319611e+05 1.284058e+05 1.514188e+05 1.393816e+05 1.745674e+05 1.745674e+05 1.745674e+05 1.744674e+05 5.093898e+04 5.093898e+04 5.093898e+04 5.070053e+04 5.695766e+04 4.593537e+05 4.593537e+05 4.593537e+05 4.551023e+05 4.619772e+05 4.619772e+05 4.619772e+05 4.462637e+05 8.422122e+04 8.422122e+04 8.422122e+04 9.068614e+04 9.595311e+04 9.633859e+04 -1.244301e+05 -1.244301e+05 -1.244301e+05 -1.380569e+05 -1.380569e+05 5.031352e+05 5.031352e+05 5.031352e+05 4.894264e+05 -1.823354e+05 -1.823354e+05 -1.823354e+05 -2.202716e+05 -2.202716e+05 8.263164e+05 8.263164e+05 8.263164e+05 2.666127e+05 2.666127e+05 2.666127e+05 2.710496e+05 1.754591e+05 1.754591e+05 1.754591e+05 5.319584e+05 5.319584e+05 5.319584e+05 5.514511e+05 -3.072474e+04 -3.072474e+04 -6.283734e+04 -6.283734e+04 3.132801e+05 3.132801e+05 3.193750e+05 5.341172e+05 5.341172e+05 5.341172e+05 5.694052e+05 5.694052e+05 -4.341096e+05 -4.341096e+05 -4.341096e+05 -3.816049e+05 -3.816049e+05 7.651120e+04 7.651120e+04 7.651120e+04 6.842172e+04 6.842172e+04 4.820385e+05 4.820385e+05 3.031103e+05 3.031103e+05 3.031103e+05 3.012364e+05 1.834043e+05 1.834043e+05 1.834043e+05 1.786836e+05 1.779265e+05 3.454668e+05 3.454668e+05 3.454668e+05 2.852533e+05 2.852533e+05 2.871051e+05 7.252138e+05 7.112795e+05 7.112795e+05 -2.653613e+03 -1.525429e+05 -1.525429e+05 1.748984e+05 -2.453934e+04 -3.052505e+04 1.644446e+05 1.257952e+05 1.257952e+05 1.257952e+05 1.321958e+05 7.223302e+04 1.268973e+05 1.268973e+05 1.268973e+05 1.379667e+05 1.379667e+05 6.301420e+04 6.301420e+04 6.301420e+04 6.629701e+04 -5.465939e+04 -5.465939e+04 -5.465939e+04 -4.204861e+04 4.364683e+05 4.298935e+05 4.144648e+05 4.701852e+05 4.701852e+05 1.462792e+05 1.462792e+05 1.462792e+05 1.523858e+05 3.220793e+05 3.220793e+05 3.220793e+05 3.294215e+05 3.294215e+05 3.186923e+05 -7.209290e+04 -7.209290e+04 -7.209290e+04 -7.578821e+04 -4.765790e+04 -4.765790e+04 -4.765790e+04 -5.956469e+04 -3.079793e+04 2.584672e+05 2.584672e+05 2.584672e+05 2.584111e+05 -2.168285e+05 -2.589339e+05 3.735454e+04 3.735454e+04 3.735454e+04 4.447590e+04 -1.174443e+05 -1.174443e+05 -1.174443e+05 -1.127036e+05 4.020524e+05 4.020524e+05 4.020524e+05 4.193558e+05 4.193558e+05 -1.781159e+05 -1.781159e+05 -1.781159e+05 -1.586702e+05 4.531652e+05 4.531652e+05 4.531652e+05 4.387810e+05 5.859948e+05 5.859948e+05 5.859948e+05 5.948663e+05 -4.700382e+04 -4.700382e+04 -3.748109e+04 1.885571e+05 1.885571e+05 2.078963e+05 2.078963e+05 2.078963e+05 1.405067e+05 1.405067e+05 1.405067e+05 1.375896e+05 -1.673431e+05 -1.673431e+05 -1.673431e+05 -1.907108e+05 -1.907108e+05 7.879974e+05 7.879974e+05 7.879974e+05 7.677402e+05 7.677402e+05 1.935191e+05 4.666479e+05 4.666479e+05 4.733496e+05 -1.313221e+05 -1.313221e+05 -1.313221e+05 -1.644652e+05 -5.605271e+04 -5.605271e+04 -1.366154e+05 -1.366154e+05 6.740716e+05 6.740716e+05 6.775021e+05 5.709668e+05 5.709668e+05 -4.970515e+04 -4.970515e+04 -1.450591e+05 -1.450591e+05 5.185358e+05 5.185358e+05 5.185358e+05 5.122543e+05 1.732292e+05 1.664732e+05 2.848634e+05 2.848634e+05 2.848634e+05 2.844776e+05 3.472623e+05 3.472623e+05 3.472623e+05 3.379655e+05 3.379655e+05 -5.484831e+05 -5.484831e+05 -5.484831e+05 -5.991913e+05 -5.991913e+05 3.134257e+05 3.212734e+05 8.156248e+05 8.156248e+05 8.156248e+05 8.079795e+05 -2.096898e+05 -2.096898e+05 -2.096898e+05 -2.775070e+05 -2.775070e+05 -2.050362e+05 -2.064667e+05 1.892036e+05 1.892036e+05 1.892036e+05 1.803931e+05 1.803931e+05 1.018045e+05 1.044841e+05 1.044841e+05 -1.000372e+05 -1.000372e+05 -1.000372e+05 -9.938010e+04 -9.938010e+04 -6.796752e+04 -6.796752e+04 -6.796752e+04 -7.492244e+04 -7.492244e+04 -1.731604e+05 -1.731604e+05 -1.693223e+05 -1.693223e+05 1.782251e+05 1.782251e+05 1.708417e+05 -1.552725e+05 -1.552725e+05 -1.579676e+05 -1.579676e+05 -7.774759e+04 -7.774759e+04 -7.774759e+04 -6.568321e+04 5.026010e+04 5.026010e+04 5.026010e+04 3.711927e+04 3.711927e+04 3.897222e+05 4.216359e+05 3.426697e+05 1.310934e+05 1.310934e+05 1.310934e+05 1.409296e+05 1.409296e+05 1.641486e+05 1.641486e+05 1.691449e+05 1.123666e+05 1.123666e+05 1.112804e+05 1.021959e+05 1.807130e+05 1.807130e+05 1.807130e+05 1.719758e+05 1.719758e+05 1.719758e+05 2.117644e+05 2.117644e+05 2.117644e+05 5.993861e+04 6.399086e+04 1.457710e+05 2.153265e+05 2.153265e+05 2.153265e+05 2.056631e+05 2.488555e+05 2.488555e+05 2.488555e+05 2.566778e+05 2.566778e+05 2.566778e+05 2.496229e+05 -6.342293e+04 -6.342293e+04 -6.342293e+04 5.677050e+04 5.677050e+04 5.677050e+04 2.027799e+05 2.027799e+05 2.027799e+05 3.982609e+05 3.982609e+05 3.958139e+05 -9.605509e+04 -4.346845e+04 -4.346845e+04 4.969148e+05 4.969148e+05 4.969148e+05 5.312968e+05 5.312968e+05 1.447790e+05 1.447790e+05 -2.813205e+05 -2.472037e+05 -2.589339e+05 5.796818e+05 5.796818e+05 5.796818e+05 5.629325e+05 -1.414252e+04 -1.414252e+04 -1.414252e+04 1.684199e+05 1.669674e+05 1.613706e+05 5.147839e+04 5.147839e+04 5.147839e+04 -1.092025e+05 -1.092025e+05 -1.092025e+05 -1.115287e+05 -1.168311e+05 1.909694e+05 1.909694e+05 1.909694e+05 7.209590e+05 7.209590e+05 7.209590e+05 7.158085e+05 3.427738e+05 3.427738e+05 3.427738e+05 3.351458e+05 7.518380e+05 7.518380e+05 7.518380e+05 2.930217e+05 9.043931e+04 9.043931e+04 1.080548e+05 1.080548e+05 1.080548e+05 1.062256e+05 1.086348e+05 -6.919064e+05 -6.919064e+05 -7.519735e+05 -2.504728e+05 -1.785124e+05 5.024869e+05 5.024869e+05 -5.650441e+04 -5.650441e+04 -5.650441e+04 -6.187851e+04 -1.245416e+05 -1.245416e+05 -1.245416e+05 -1.787412e+05 4.047535e+05 3.885464e+05 3.885464e+05 2.527731e+04 2.527731e+04 2.527731e+04 2.489859e+04 -4.395823e+04 5.471131e+04 5.471131e+04 5.744797e+04 5.558062e+05 5.558062e+05 5.558062e+05 7.974559e+05 7.974559e+05 7.464771e+05 7.464771e+05 7.464771e+05 7.809527e+05 8.339124e+05 8.339124e+05 8.339124e+05 8.278013e+05 8.278013e+05 8.553593e+05 6.928626e+05 6.928626e+05 9.874244e+04 -3.003416e+04 -3.003416e+04 -3.214141e+04 2.842603e+04 8.802223e+05 8.300258e+05 8.802223e+05 8.802223e+05 4.264097e+05 4.264097e+05 4.264097e+05 4.002819e+05 4.002819e+05 5.233937e+05 5.233937e+05 5.517824e+05 5.517824e+05 4.526534e+05 4.526534e+05 4.526534e+05 4.740292e+05 4.740292e+05 1.436473e+05 1.436473e+05 1.436473e+05 1.495102e+05 1.495102e+05 5.894858e+05 5.894858e+05 5.894858e+05 5.492097e+05 5.492097e+05 2.810347e+05 2.810347e+05 2.810347e+05 1.618439e+05 -2.219976e+05 -2.219976e+05 -2.219976e+05 -1.981765e+05 -1.981765e+05 -1.165254e+05 -1.165254e+05 -1.165254e+05 -9.908391e+04 -9.908391e+04 -3.715238e+04 -3.715238e+04 -3.715238e+04 5.417990e+04 5.417990e+04 4.544533e+05 4.544533e+05 4.544533e+05 1.741058e+05 1.741058e+05 1.741058e+05 1.829571e+05 1.829571e+05 3.610811e+04 5.596163e+04 -1.503182e+04 -1.503182e+04 -1.503182e+04 -2.422335e+04 1.610171e+05 1.610171e+05 1.582553e+05 1.036315e+05 1.036315e+05 1.043192e+05 1.043192e+05 1.122499e+05 1.183696e+05 2.164512e+05 1.922793e+05 2.164512e+05 2.164512e+05 1.514188e+05 1.514188e+05 1.238747e+05 2.506628e+05 2.590212e+05 5.162657e+05 5.162657e+05 5.162657e+05 5.078320e+05 5.184715e+05 2.495657e+04 2.495657e+04 2.495657e+04 1.859832e+04 -1.155930e+05 -8.747636e+04 -6.698867e+05 -6.698867e+05 -6.698867e+05 -5.758455e+05 4.563081e+05 4.715797e+05 4.759265e+05 1.096029e+05 1.096029e+05 1.073880e+05 -1.220585e+05 -1.306186e+05 -1.306186e+05 -1.359852e+05 -2.276888e+05 -3.143945e+04 -5.574675e+04 -7.987810e+04 1.018978e+04 1.018978e+04 1.018978e+04 9.700314e+03 -8.563872e+04 -8.563872e+04 -8.563872e+04 -3.536390e+04 1.132429e+05 -1.501671e+03 -9.282155e+04 -9.282155e+04 3.271864e+05 3.271864e+05 3.271864e+05 4.825232e+03 7.547564e+05 7.547564e+05 3.742480e+04 3.742480e+04 3.742480e+04 4.046360e+05 -5.986155e+04 -5.986155e+04 2.007331e+04 -5.325042e+02 -5.325042e+02 -5.325042e+02 -3.647700e+03 -2.743927e+04 -5.165030e+04 -5.165030e+04 -7.785123e+04 -2.465007e+03 1.291052e+05 1.291052e+05 -8.378164e+04 -8.378164e+04 -8.378164e+04 -3.052418e+04 6.817061e+05 6.765695e+05 6.765695e+05 3.626030e+05 -1.029717e+05 -1.029717e+05 -1.159043e+05 7.284675e+05 7.284675e+05 6.749725e+05 4.830907e+05 -2.443831e+04 -3.491302e+04 -3.491302e+04 9.075708e+05 9.075708e+05 -3.669457e+04 7.912875e+05 7.912875e+05 -2.037527e+04 -2.037527e+04 -2.037527e+04 -1.990458e+04 -7.003254e+04 -7.003254e+04 -3.159347e+04 -3.159347e+04 -1.595802e+05 -1.875375e+05 2.702994e+05 2.721540e+05 2.306819e+03 -6.982378e+04 -6.982378e+04 1.528554e+05 1.555341e+05 1.555341e+05 -5.932720e+04 -5.932720e+04 -1.686312e+05 -1.686312e+05 6.032805e+05 1.638686e+05 9.159029e+05 9.159029e+05 9.135828e+05 9.347055e+05 9.347055e+05 6.779501e+05 6.459876e+05 4.116802e+05 4.116802e+05 4.116802e+05 8.161255e+05 8.161255e+05 8.161255e+05 8.156226e+05 -2.765420e+04 -2.765420e+04 4.437084e+05 -1.834375e+05 -1.834375e+05 4.224096e+02 -6.382709e+04 4.597208e+04 4.597208e+04 4.597208e+04 -2.628727e+04 -2.628727e+04 6.557664e+05 6.237369e+05 6.237369e+05 2.415128e+05 2.423616e+05 2.102683e+05 2.121659e+05 -3.305632e+05 8.758541e+05 8.758541e+05 -6.421230e+04 -6.421230e+04 -6.421230e+04 -7.641422e+04 8.121401e+05 -2.525510e+04 -1.049082e+04 -1.049082e+04 -1.254307e+04 -3.938583e+04 -3.938583e+04 -1.455069e+05 -1.455069e+05 -4.629008e+04 3.831383e+05 3.707683e+05 3.707683e+05 6.117361e+04 8.919781e+05 8.919781e+05 8.525297e+05 8.525297e+05 8.095758e+04 8.095758e+04 8.095758e+04 -7.350917e+04 -7.350917e+04 -7.350917e+04 9.314885e+04 9.314885e+04 6.732916e+05 8.849513e+05 8.687217e+05 8.182833e+05 6.544388e+05 8.570591e+05 -1.994027e+05 2.513106e+05 2.566538e+05 -8.255310e+04 -8.255310e+04 5.116106e+05 4.397008e+05 -4.562660e+04 -6.589878e+04 7.218742e+04 7.218742e+04 9.696141e+05 9.263431e+05 9.022319e+05 9.022319e+05 9.022319e+05 9.352739e+05 7.166711e+05 6.780284e+05 7.609709e+05 7.561839e+05 2.310774e+05 2.310774e+05 2.259328e+05 6.387485e+05 -1.641156e+05 -1.121413e+05 4.976788e+05 4.269272e+05 4.269272e+05 4.269272e+05 4.980911e+04 -1.892845e+04 -1.892845e+04 -1.892845e+04 9.216059e+05 7.358999e+05 8.324022e+05 7.811440e+05 -4.474830e+04 3.687704e+05 8.068264e+05 8.564584e+05 -2.837138e+05 -4.656243e+05 -4.656243e+05 3.051247e+05 4.077116e+05 -1.703902e+05 -2.166943e+05 6.573699e+05 6.123916e+05 6.123916e+05 -2.122683e+05 -2.122683e+05 -2.434808e+05 -2.434808e+05 -2.925966e+04 5.080976e+05 1.483774e+05 -3.117255e+05 7.724763e+05 7.476816e+05 4.437631e+04 1.389838e+05 1.364080e+05 1.364080e+05 7.129938e+05 7.129938e+05 6.804842e+05 6.804842e+05 3.456670e+04 4.148723e+04 -7.065026e+04 -7.065026e+04 -5.746141e+04 4.700509e+03 4.700509e+03 -1.156703e+03 -1.156703e+03 -4.964801e+04 -4.964801e+04 -6.303321e+05 7.635112e+05 7.635112e+05 6.150298e+05 6.150298e+05 6.150298e+05 5.511107e+05 -1.858292e+05 -1.858292e+05 -1.313654e+05 -1.313654e+05 -3.869836e+05 -3.596029e+05 6.172570e+05 7.901305e+05 -9.092018e+04 -4.159725e+05 -4.159725e+05 7.661287e+04 7.661287e+04 8.511103e+04 -3.897733e+05 -3.897733e+05 -7.478890e+04 -7.478890e+04 7.270447e+05 7.270447e+05 2.470610e+05 8.862596e+05 3.805727e+05 3.805727e+05 3.752344e+05 1.496078e+05 1.549902e+05 -1.680018e+05 -2.246693e+05 -3.767200e+04 8.459783e+05 -6.082489e+05 -8.751133e+03 -8.751133e+03 -8.751133e+03 1.200638e+05 1.200638e+05 1.200638e+05 1.996166e+05 2.320531e+04 2.320531e+04 2.320531e+04 1.534942e+04 8.873801e+05 8.523261e+05 4.948312e+05 4.659031e+05 4.659031e+05 9.607667e+04 9.607667e+04 9.607667e+04 5.209313e+05 -2.064720e+05 8.073301e+05 8.752163e+05 8.752163e+05 8.490936e+05 1.217051e+05 -9.469330e+04 -9.469330e+04 -1.047435e+05 -4.405801e+04 -4.405801e+04 7.958182e+05 -1.612669e+05 -3.650477e+04 -3.284312e+04 -9.511426e+04 2.218487e+05 2.285430e+05 7.919776e+05 5.369599e+04 5.369599e+04 5.369599e+04 -8.622736e+04 -8.622736e+04 5.902534e+05 5.592764e+05 5.592764e+05 7.171454e+05 6.978566e+05 -1.841763e+05 -1.832561e+05 7.145318e+05 7.145318e+05 7.145318e+05 7.033314e+05 -1.751287e+05 -1.751287e+05 -1.556252e+05 -4.015789e+05 -4.015789e+05 2.536309e+05 2.536309e+05 2.536309e+05 2.591624e+05 -4.172825e+04 7.195122e+05 7.195122e+05 7.195122e+05 7.281945e+05 7.828365e+05 -1.346958e+05 -1.346958e+05 -1.379999e+05 -1.379999e+05 -2.056894e+05 5.901589e+05 5.901589e+05 8.412659e+04 7.805818e+04 5.149591e+05 5.149591e+05 -1.385407e+05 -1.455554e+05 6.933930e+05 8.300258e+05 8.113030e+05 -5.363523e+04 -5.400037e+04 7.776346e+05 2.472917e+04 2.472917e+04 2.361433e+04 2.361433e+04 -5.826510e+04 5.584421e+04 6.307815e+04 4.330211e+05 -2.556382e+04 -1.575528e+05 -1.375864e+05 5.775144e+05 5.775144e+05 8.180110e+05 8.180110e+05 8.180110e+05 7.846234e+05 -3.371225e+05 -3.371225e+05 -3.892564e+05 2.479492e+05 2.414650e+05 4.041400e+05 -5.342576e+05 -6.571286e+05 -6.571286e+05 -6.571286e+05 -5.984160e+05 5.076723e+03 9.669822e+05 6.894228e+05 6.453844e+05 6.453844e+05 -2.842628e+05 -2.842628e+05 -2.842628e+05 -3.142651e+05 7.635059e+05 7.635059e+05 6.503781e+05 6.503781e+05 6.333960e+05 4.686641e+05 3.440837e+05 7.669715e+05 -2.203268e+04 -2.809315e+04 7.740918e+05 7.655300e+05 1.564684e+05 3.684431e+05 3.684431e+05 3.684431e+05 3.798061e+05 -2.647595e+05 3.144347e+04 3.195707e+04 -4.001649e+05 -3.671824e+05 1.089561e+05 1.133899e+05 -9.581577e+04 -9.581577e+04 4.158917e+05 -6.319163e+04 -6.319163e+04 -5.562326e+04 -7.935045e+04 -7.935045e+04 9.577300e+03 -2.322837e+05 -2.322837e+05 -2.611808e+05 6.405241e+05 7.404801e+05 7.404801e+05 -9.377592e+03 -9.241168e+03 -9.241168e+03 2.803846e+05 -3.004835e+05 -3.731954e+05 -3.128106e+05 5.765260e+05 5.765260e+05 1.355885e+05 -4.333672e+04 2.732892e+05 2.651117e+05 2.394946e+05 5.747065e+05 5.747065e+05 3.828309e+05 3.828309e+05 3.828309e+05 2.293104e+05 2.277114e+05 4.886577e+05 4.831143e+05 4.831143e+05 1.394332e+05 1.318946e+05 1.318946e+05 3.086315e+05 2.094821e+05 2.174360e+05 6.869630e+05 6.748852e+05 6.748852e+05 6.748852e+05 6.980930e+05 -3.119307e+05 -1.295345e+05 2.392718e+03 7.890485e+03 -9.414640e+04 -9.414640e+04 -9.414640e+04 6.101359e+04 6.101359e+04 6.101359e+04 6.293362e+04 7.189367e+04 -2.689085e+05 -1.864847e+05 -1.775873e+05 4.026642e+04 4.026642e+04 -2.243711e+05 -1.772441e+05 -1.723245e+05 -1.723245e+05 2.361745e+04 -6.520670e+04 -6.520670e+04 -6.955897e+04 4.381631e+05 4.381631e+05 4.245456e+05 -2.316237e+04 -2.316237e+04 1.717386e+05 -1.316799e+05 -1.316799e+05 -1.404831e+05 -1.404831e+05 -2.246769e+05 -2.246769e+05 -2.246769e+05 6.542568e+05 6.192007e+05 6.192007e+05 -2.504090e+05 -2.504090e+05 -2.504090e+05 -3.428016e+05 -3.286788e+05 5.026488e+04 6.585645e+05 6.585645e+05 6.235748e+05 5.982649e+05 5.982649e+05 5.982649e+05 3.270151e+05 3.270151e+05 3.233823e+05 2.907100e+05 2.907100e+05 2.988512e+05 -2.759697e+05 -2.001954e+05 -2.001954e+05 7.208042e+05 6.810485e+05 -3.670733e+04 -3.670733e+04 -3.670733e+04 7.649016e+05 -1.577365e+05 -1.577365e+05 -1.518794e+05 -1.518794e+05 -2.410185e+05 -2.410185e+05 -2.144789e+05 -2.144789e+05 -2.373352e+05 -2.373352e+05 -3.162231e+05 2.501539e+05 2.463211e+05 -3.022378e+04 5.299252e+05 5.299252e+05 5.299252e+05 6.167030e+04 3.710512e+05 -2.288944e+05 3.289973e+05 7.273897e+05 -8.602274e+04 4.000614e+05 4.000614e+05 7.331276e+05 6.881601e+05 6.881601e+05 2.750015e+05 2.755433e+05 6.758325e+05 6.758325e+05 6.322940e+05 -1.723091e+05 -1.723091e+05 8.031091e+04 1.325806e+05 5.975304e+05 1.955002e+05 7.179335e+05 6.660193e+05 6.660193e+05 -4.391943e+04 3.879568e+04 1.570106e+04 6.551577e+05 6.806513e+05 -2.181221e+05 -2.181221e+05 -8.181776e+04 -8.181776e+04 1.467949e+05 -2.242272e+05 -2.262430e+05 -2.262430e+05 5.980979e+05 -5.436846e+04 -4.452911e+04 1.450554e+04 1.450554e+04 1.450554e+04 4.847846e+03 4.847846e+03 3.641859e+05 5.551419e+05 6.425312e+05 4.537171e+05 4.537171e+05 2.222447e+05 2.222447e+05 2.237205e+05 2.082853e+05 2.082853e+05 6.609234e+05 6.609234e+05 6.609234e+05 6.127198e+05 6.127198e+05 2.909497e+05 2.909497e+05 3.013213e+05 3.604306e+05 3.322387e+05 3.322387e+05 3.322387e+05 -1.234826e+05 3.852673e+05 3.663612e+05 3.663612e+05 -1.181626e+05 -1.103474e+05 -2.472037e+05 -2.145309e+05 6.019562e+05 2.737117e+05 2.613559e+05 6.810485e+05 4.645526e+05 4.645526e+05 4.360199e+05 4.360199e+05 4.908889e+05 4.906638e+05 5.998146e+05 -1.945610e+05 -1.358102e+05 -1.358102e+05 -1.381147e+05 -2.364309e+05 5.195392e+05 -2.444638e+05 7.110360e+04 -1.055540e+05 6.370466e+05 5.684428e+05 5.684428e+05 5.499983e+05 5.499983e+05 2.908353e+03 1.208866e+05 1.208866e+05 1.208866e+05 -3.362662e+04 5.021393e+05 1.681540e+05 -1.754463e+05 -1.785424e+05 -5.963044e+04 -2.254074e+05 -1.498602e+05 -1.663773e+05 -1.963302e+05 -1.963302e+05 -1.963302e+05 3.816297e+05 -1.399019e+04 -2.260541e+05 4.390706e+05 4.390706e+05 4.231129e+05 2.170014e+05 7.365354e+04 7.365354e+04 5.507904e+05 3.078830e+05 3.138471e+05 -2.158682e+05 2.064469e+05 2.064469e+05 2.233837e+05 -2.452294e+05 -1.944731e+05 -1.944731e+05 -2.071330e+05 1.262495e+05 1.262495e+05 1.262495e+05 2.441858e+05 2.598144e+04 1.771282e+05 9.193242e+03 1.223649e+03 1.223649e+03 -4.357556e+04 -9.751608e+04 3.696352e+05 3.696352e+05 4.762253e+05 -5.432221e+04 -5.432221e+04 -5.432221e+04 -5.909127e+04 5.873557e+05 2.693126e+05 5.587256e+05 5.133792e+05 1.026761e+05 3.424066e+05 3.484108e+05 5.533744e+05 2.553197e+05 2.517940e+05 -2.168285e+05 2.438930e+05 4.396267e+05 4.396267e+05 4.396267e+05 6.279311e+05 6.007388e+05 4.252428e+05 5.149537e+05 6.279311e+05 -1.748499e+05 -1.969738e+05 -8.448963e+04 3.037496e+05 2.787548e+05 1.923674e+05 -1.485267e+05 -1.485267e+05 -1.485267e+05 -4.802797e+04 5.189093e+05 5.189093e+05 5.487694e+05 5.487694e+05 2.244111e+05 -1.777165e+05 4.957602e+05 8.706439e+04 8.706439e+04 8.706439e+04 3.873196e+04 4.803965e+05 4.803965e+05 8.034109e+04 1.788217e+05 3.095725e+05 -1.476300e+05 4.320845e+05 4.320845e+05 4.320845e+05 -1.590421e+05 -1.590421e+05 -1.590421e+05 6.217755e+05 1.736963e+05 5.145594e+05 5.145594e+05 -1.789285e+05 -1.789285e+05 -1.789285e+05 -1.714387e+05 9.265848e+03 9.265848e+03 9.265848e+03 3.739156e+05 3.739156e+05 3.739156e+05 4.153192e+05 1.060850e+05 1.036122e+05 1.242438e+05 1.242438e+05 1.242438e+05 5.191781e+04 5.522338e+04 5.522338e+04 3.678059e+05 3.368112e+05 6.051716e+05 1.003481e+05 9.475902e+04 -1.262835e+05 -9.937473e+04 2.475020e+05 -6.253506e+04 -1.353180e+05 -1.353180e+05 -1.447176e+05 4.525807e+05 2.218172e+05 -5.265842e+04 -5.977992e+04 7.401804e+04 2.446145e+05 -1.150766e+04 -1.150766e+04 3.404372e+05 3.675660e+05 3.521452e+05 -7.252633e+04 1.711458e+05 4.584417e+05 -1.199897e+05 -1.199897e+05 -1.560612e+05 -1.560612e+05 3.825655e+05 3.825655e+05 3.825655e+05 3.581525e+05 3.581525e+05 2.391954e+05 4.081912e+05 3.977437e+05 3.977437e+05 -6.567320e+04 2.005647e+05 2.165546e+05 2.762414e+05 2.762414e+05 2.992886e+05 3.666194e+05 -1.167481e+05 -1.167481e+05 3.427893e+05 3.344443e+05 -1.262835e+05 -1.262835e+05 -6.591120e+04 -1.690357e+05 -1.690357e+05 -1.690357e+05 1.467547e+05 -7.735364e+04 -7.350826e+04 8.403556e+04 8.403556e+04 8.403556e+04 1.165380e+05 1.289254e+05 2.192208e+05 1.079350e+05 -6.313830e+04 2.738596e+05 2.738596e+05 2.738596e+05 2.614063e+05 -1.482981e+05 3.455560e+05 3.455560e+05 3.455560e+05 3.076293e+05 -1.023085e+05 3.218130e+05 3.218130e+05 1.515723e+05 -1.042665e+05 -1.042665e+05 -1.042665e+05 -1.072883e+05 -1.072883e+05 4.288395e+05 3.934227e+05 3.934227e+05 -9.090520e+04 -9.304817e+04 -9.304817e+04 2.530535e+05 -8.473996e+04 -8.473996e+04 -8.473996e+04 -6.587999e+04 -6.587999e+04 -6.587999e+04 1.212456e+05 1.212456e+05 1.310302e+05 3.686739e+04 -9.004761e+04 -9.004761e+04 1.150612e+05 1.820003e+05 1.820003e+05 1.653616e+05 1.653616e+05 3.143264e+05 3.891714e+04 2.419238e+04 2.419238e+04 -6.698227e+04 -6.698227e+04 8.118647e+04 8.118647e+04 1.016450e+05 2.306488e+05 2.306488e+05 2.145329e+05 2.145329e+05 5.165403e+04 2.365392e+05 3.564383e+05 3.461036e+05 3.461036e+05 2.193971e+05 1.567683e+05 7.486260e+04 3.236392e+05 3.236392e+05 2.345575e+05 3.426697e+05 3.426697e+05 -8.206984e+04 -8.206984e+04 2.577801e+05 3.006628e+05 3.006628e+05 3.006628e+05 2.793545e+05 2.793545e+05 3.195388e+05 1.844909e+05 1.844909e+05 2.848398e+05 2.848398e+05 2.684318e+05 7.555594e+04 1.476978e+05 -2.296626e+04 -3.300093e+04 3.102577e+05 3.102577e+05 -9.773377e+03 -9.773377e+03 1.192167e+05 1.192167e+05 -6.669858e+04 1.640644e+05 1.640644e+05 1.482621e+05 4.680791e+04 4.680791e+04 2.490871e+05 2.490871e+05 2.320907e+05 1.890989e+05 1.890989e+05 8.458223e+04 8.458223e+04 1.361172e+05 1.361172e+05 1.076826e+05 1.102491e+05 1.102491e+05 9.002501e+03 1.390151e+04 7.646559e+04 1.811607e+05 1.824309e+05 2.895787e+05 2.834283e+05 2.478196e+05 2.478196e+05 2.860386e+05 4.325501e+04 4.325501e+04 2.049040e+04 2.068458e+05 2.819902e+05 3.010334e+05 3.010334e+05 1.047141e+05 1.047141e+05 2.534537e+05 2.782340e+05 7.517593e+04 7.517593e+04 2.365147e+05 2.365147e+05 2.108582e+03 3.010724e+04 3.010724e+04 3.010724e+04 1.462862e+04 1.462862e+04 2.323960e+05 2.170631e+05 1.902989e+05 1.902989e+05 2.106793e+05 2.106793e+05 2.303832e+05 6.085248e+04 2.668906e+05 2.408557e+05 1.551582e+05 1.311776e+05 1.800646e+05 1.523144e+05 2.061618e+05 8.745950e+04 1.408992e+05 1.699946e+05 1.551342e+05 1.612738e+05 1.991919e+05 1.922793e+05 1.084873e+05 1.084873e+05 1.541941e+05 1.469769e+05 1.783983e+05 9.702014e+04 1.033728e+05 1.614928e+05 1.614928e+05 1.598665e+05 1.598665e+05 1.213306e+05 1.213306e+05 1.499602e+05 1.375407e+05 1.375407e+05 1.375407e+05 1.377115e+05 1.377115e+05 6.335768e+04 6.335768e+04 6.335768e+04 1.904603e+04 1.904603e+04 -4.762423e+04 -3.844431e+04 8.815212e+04 -4.762423e+04 -4.762423e+04 -5.704127e+04 -2.514308e+03 2.544101e+04 3.969468e+04 4.494351e+04 4.629930e+04 6.811011e+04 6.992992e+04 8.425466e+04 8.425466e+04 1.179008e+05 -6.429084e+04 8.815212e+04 2.783791e+05 2.178521e+05 1.495449e+05 2.781919e+05 2.781919e+05 2.483250e+05 2.460936e+05 2.483250e+05 1.206382e+05 2.323985e+05 1.333689e+05 9.462326e+04 9.708934e+04 9.708934e+04 1.402655e+05 9.696141e+05 9.696141e+05 9.669822e+05 9.657099e+05 9.623984e+05 9.594118e+05 9.519317e+05 9.470809e+05 9.416621e+05 9.348441e+05 9.295309e+05 9.229791e+05 9.156809e+05 9.090442e+05 9.034195e+05 8.933603e+05 8.875482e+05 8.798949e+05 8.764973e+05 8.687193e+05 8.625135e+05 8.539927e+05 8.451739e+05 8.362017e+05 8.247096e+05 8.193717e+05 8.106957e+05 8.026013e+05 7.928075e+05 7.826888e+05 7.754135e+05 7.648817e+05 7.547094e+05 7.434049e+05 7.327229e+05 7.252138e+05 7.163786e+05 7.051611e+05 6.970590e+05 6.886157e+05 6.779501e+05 6.664880e+05 6.557664e+05 6.433451e+05 6.336864e+05 6.234997e+05 6.107893e+05 5.973113e+05 5.858800e+05 5.742236e+05 5.621860e+05 5.503048e+05 5.391940e+05 5.263719e+05 5.115403e+05 5.004469e+05 4.855269e+05 4.750753e+05 4.631349e+05 4.510874e+05 4.395638e+05 4.270895e+05 4.149131e+05 4.047535e+05 3.946546e+05 3.831383e+05 3.704776e+05 3.601384e+05 3.485197e+05 3.372649e+05 3.245193e+05 3.155282e+05 3.045329e+05 2.937415e+05 2.821316e+05 2.731802e+05 2.619394e+05 2.514970e+05 2.415128e+05 2.313988e+05 2.198647e+05 2.102683e+05 1.999483e+05 1.908864e+05 1.811786e+05 1.712719e+05 1.616727e+05 1.528554e+05 1.426619e+05 1.341051e+05 1.257356e+05 1.172629e+05 1.088894e+05 1.011487e+05 9.326257e+04 8.551031e+04 7.833127e+04 7.183724e+04 6.464279e+04 5.666377e+04 5.037456e+04 4.434558e+04 3.903318e+04 3.290435e+04 2.733196e+04 2.213248e+04 1.787588e+04 1.343134e+04 8.826331e+03 5.305489e+03 1.306694e+03 -1.944555e+02 -5.274647e+03 -1.027204e+04 -1.316024e+04 -1.481475e+04 -1.644668e+04 -1.933503e+04 -2.149423e+04 -2.443831e+04 -2.427952e+04 -2.448968e+04 -2.058160e+04 -2.307702e+04 -2.453934e+04 -2.325710e+04 -2.234412e+04 -1.690294e+04 -1.163856e+04 -1.802763e+04 -1.974103e+04 -1.717359e+04 -1.967251e+04 -1.326931e+04 -1.951625e+04 -1.866317e+04 -1.201936e+04 -1.540294e+04 -9.479744e+03 -5.359902e+03 -1.077353e+04 -9.929682e+03 -7.604112e+03 -2.846861e+03 2.306819e+03 -1.207524e+04 -1.501671e+03 -6.903906e+03 -7.791504e+02 -1.065912e+04 -1.081920e+04 -5.144471e+03 -4.272275e+01 -1.289511e+04 -1.921919e+04 2.073136e+03 -2.465007e+03 -4.829682e+02 -2.653587e+03 -1.535325e+04 -4.367241e+03 -1.015962e+04 -6.526429e+03 1.182685e+03 1.307839e+03 -1.361401e+04 -1.483528e+04 -2.140994e+04 -1.258733e+04 -3.234471e+04 -2.302657e+04 -5.829172e+03 -7.634185e+03 -2.653613e+03 -7.817800e+03 -3.215201e+03 -2.542940e+04 -1.952587e+04 -1.886912e+03 4.532783e+02 -8.381705e+04 1.104133e+05 1.104133e+05 1.104133e+05 1.279960e+05 1.279960e+05 1.279960e+05 1.319611e+05 1.284058e+05 1.514188e+05 1.393816e+05 1.745674e+05 1.745674e+05 1.745674e+05 1.744674e+05 5.093898e+04 5.093898e+04 5.093898e+04 5.070053e+04 5.695766e+04 4.593537e+05 4.593537e+05 4.593537e+05 4.551023e+05 4.619772e+05 4.619772e+05 4.619772e+05 4.462637e+05 8.422122e+04 8.422122e+04 8.422122e+04 9.068614e+04 9.595311e+04 9.633859e+04 -1.244301e+05 -1.244301e+05 -1.244301e+05 -1.380569e+05 -1.380569e+05 5.031352e+05 5.031352e+05 5.031352e+05 4.894264e+05 -1.823354e+05 -1.823354e+05 -1.823354e+05 -2.202716e+05 -2.202716e+05 8.263164e+05 8.263164e+05 8.263164e+05 2.666127e+05 2.666127e+05 2.666127e+05 2.710496e+05 1.754591e+05 1.754591e+05 1.754591e+05 5.319584e+05 5.319584e+05 5.319584e+05 5.514511e+05 -3.072474e+04 -3.072474e+04 -6.283734e+04 -6.283734e+04 3.132801e+05 3.132801e+05 3.193750e+05 5.341172e+05 5.341172e+05 5.341172e+05 5.694052e+05 5.694052e+05 -4.341096e+05 -4.341096e+05 -4.341096e+05 -3.816049e+05 -3.816049e+05 7.651120e+04 7.651120e+04 7.651120e+04 6.842172e+04 6.842172e+04 4.820385e+05 4.820385e+05 3.031103e+05 3.031103e+05 3.031103e+05 3.012364e+05 1.834043e+05 1.834043e+05 1.834043e+05 1.786836e+05 1.779265e+05 3.454668e+05 3.454668e+05 3.454668e+05 2.852533e+05 2.852533e+05 2.871051e+05 7.252138e+05 7.112795e+05 7.112795e+05 -2.653613e+03 -1.525429e+05 -1.525429e+05 1.748984e+05 -2.453934e+04 -3.052505e+04 1.644446e+05 1.257952e+05 1.257952e+05 1.257952e+05 1.321958e+05 7.223302e+04 1.268973e+05 1.268973e+05 1.268973e+05 1.379667e+05 1.379667e+05 6.301420e+04 6.301420e+04 6.301420e+04 6.629701e+04 -5.465939e+04 -5.465939e+04 -5.465939e+04 -4.204861e+04 4.364683e+05 4.298935e+05 4.144648e+05 4.701852e+05 4.701852e+05 1.462792e+05 1.462792e+05 1.462792e+05 1.523858e+05 3.220793e+05 3.220793e+05 3.220793e+05 3.294215e+05 3.294215e+05 3.186923e+05 -7.209290e+04 -7.209290e+04 -7.209290e+04 -7.578821e+04 -4.765790e+04 -4.765790e+04 -4.765790e+04 -5.956469e+04 -3.079793e+04 2.584672e+05 2.584672e+05 2.584672e+05 2.584111e+05 -2.168285e+05 -2.589339e+05 3.735454e+04 3.735454e+04 3.735454e+04 4.447590e+04 -1.174443e+05 -1.174443e+05 -1.174443e+05 -1.127036e+05 4.020524e+05 4.020524e+05 4.020524e+05 4.193558e+05 4.193558e+05 -1.781159e+05 -1.781159e+05 -1.781159e+05 -1.586702e+05 4.531652e+05 4.531652e+05 4.531652e+05 4.387810e+05 5.859948e+05 5.859948e+05 5.859948e+05 5.948663e+05 -4.700382e+04 -4.700382e+04 -3.748109e+04 1.885571e+05 1.885571e+05 2.078963e+05 2.078963e+05 2.078963e+05 1.405067e+05 1.405067e+05 1.405067e+05 1.375896e+05 -1.673431e+05 -1.673431e+05 -1.673431e+05 -1.907108e+05 -1.907108e+05 7.879974e+05 7.879974e+05 7.879974e+05 7.677402e+05 7.677402e+05 1.935191e+05 4.666479e+05 4.666479e+05 4.733496e+05 -1.313221e+05 -1.313221e+05 -1.313221e+05 -1.644652e+05 -5.605271e+04 -5.605271e+04 -1.366154e+05 -1.366154e+05 6.740716e+05 6.740716e+05 6.775021e+05 5.709668e+05 5.709668e+05 -4.970515e+04 -4.97051