<?xml version="1.0"?>
 <VTKFile type="UnstructuredGrid" version="1.0" byte_order="LittleEndian" header_type="UInt64">
  <UnstructuredGrid>
    <FieldData>
     <DataArray type="Float64" Name="TimeValue" NumberOfTuples="1" format="ascii">
20
     </DataArray>
    </FieldData>
   <Piece NumberOfPoints="3548" NumberOfCells="3379">
    <PointData>
     <DataArray type="Float64" Name="pointP" format="ascii">
1.013127e+05 1.013122e+05 1.013116e+05 1.013111e+05 1.013102e+05 1.013097e+05 1.013093e+05 1.013089e+05 1.013080e+05 1.013069e+05 1.013065e+05 1.013055e+05 1.013055e+05 1.013053e+05 1.013048e+05 1.013049e+05 1.013044e+05 1.013040e+05 1.013038e+05 1.013039e+05 1.013037e+05 1.013032e+05 1.013031e+05 1.013023e+05 1.013018e+05 1.013015e+05 1.013012e+05 1.013010e+05 1.013001e+05 1.012992e+05 1.012987e+05 1.012984e+05 1.012979e+05 1.012974e+05 1.012971e+05 1.012961e+05 1.012955e+05 1.012955e+05 1.012950e+05 1.012941e+05 1.012936e+05 1.012936e+05 1.012925e+05 1.012924e+05 1.012935e+05 1.012929e+05 1.012926e+05 1.012914e+05 1.012914e+05 1.012927e+05 1.012922e+05 1.012921e+05 1.012915e+05 1.012909e+05 1.012907e+05 1.012902e+05 1.012899e+05 1.012879e+05 1.012877e+05 1.012880e+05 1.012875e+05 1.012872e+05 1.012872e+05 1.012875e+05 1.012876e+05 1.012869e+05 1.012850e+05 1.012841e+05 1.012839e+05 1.012838e+05 1.012841e+05 1.012845e+05 1.012846e+05 1.012850e+05 1.012850e+05 1.012852e+05 1.012856e+05 1.012877e+05 1.012903e+05 1.012929e+05 1.012945e+05 1.012945e+05 1.012978e+05 1.013002e+05 1.013012e+05 1.013020e+05 1.013020e+05 1.013035e+05 1.013050e+05 1.013058e+05 1.013064e+05 1.013067e+05 1.013079e+05 1.013083e+05 1.013089e+05 1.013101e+05 1.013107e+05 1.013112e+05 1.013120e+05 1.013124e+05 1.013128e+05 1.013134e+05 1.013134e+05 1.013139e+05 1.013146e+05 1.013148e+05 1.013151e+05 1.013154e+05 1.013157e+05 1.013162e+05 1.013166e+05 1.013168e+05 1.013170e+05 1.013174e+05 1.013177e+05 1.013181e+05 1.013182e+05 1.013184e+05 1.013187e+05 1.013188e+05 1.013191e+05 1.013192e+05 1.013195e+05 1.013197e+05 1.013199e+05 1.013201e+05 1.013202e+05 1.013205e+05 1.013205e+05 1.013207e+05 1.013209e+05 1.013212e+05 1.013212e+05 1.013214e+05 1.013216e+05 1.013216e+05 1.013218e+05 1.013220e+05 1.013221e+05 1.013222e+05 1.013222e+05 1.013224e+05 1.013224e+05 1.013225e+05 1.013226e+05 1.013228e+05 1.013228e+05 1.013229e+05 1.013231e+05 1.013231e+05 1.013232e+05 1.013232e+05 1.013233e+05 1.013234e+05 1.013234e+05 1.013226e+05 1.013226e+05 1.013226e+05 1.013228e+05 1.013236e+05 1.013236e+05 1.013236e+05 1.013225e+05 1.013225e+05 1.013225e+05 1.013228e+05 1.013202e+05 1.013202e+05 1.013202e+05 1.013197e+05 1.013168e+05 1.013168e+05 1.013168e+05 1.013162e+05 1.013045e+05 1.013045e+05 1.013045e+05 1.013048e+05 1.013060e+05 1.013086e+05 1.013086e+05 1.013086e+05 1.013093e+05 1.013183e+05 1.013183e+05 1.013183e+05 1.013145e+05 1.013145e+05 1.013145e+05 1.013146e+05 1.013140e+05 1.012994e+05 1.012994e+05 1.012994e+05 1.012979e+05 1.013137e+05 1.013137e+05 1.013137e+05 1.013147e+05 1.013147e+05 1.013023e+05 1.013023e+05 1.013023e+05 1.013022e+05 1.013028e+05 1.012943e+05 1.012943e+05 1.012943e+05 1.012942e+05 1.012950e+05 1.013046e+05 1.013046e+05 1.013046e+05 1.013050e+05 1.012903e+05 1.012903e+05 1.012903e+05 1.013122e+05 1.013122e+05 1.013036e+05 1.013036e+05 1.012979e+05 1.012979e+05 1.012979e+05 1.012963e+05 1.012934e+05 1.012934e+05 1.012934e+05 1.012918e+05 1.012886e+05 1.012886e+05 1.012901e+05 1.012901e+05 1.012997e+05 1.012997e+05 1.012997e+05 1.012987e+05 1.012987e+05 1.012940e+05 1.012940e+05 1.012940e+05 1.012957e+05 1.012957e+05 1.013133e+05 1.013014e+05 1.013014e+05 1.013014e+05 1.013016e+05 1.013122e+05 1.013122e+05 1.013122e+05 1.013125e+05 1.013125e+05 1.013094e+05 1.013094e+05 1.013094e+05 1.013107e+05 1.013107e+05 1.013088e+05 1.013088e+05 1.013088e+05 1.013080e+05 1.013080e+05 1.013069e+05 1.013069e+05 1.013069e+05 1.013082e+05 1.013082e+05 1.013220e+05 1.013220e+05 1.013220e+05 1.013221e+05 1.013176e+05 1.013176e+05 1.013176e+05 1.013171e+05 1.013144e+05 1.013144e+05 1.013144e+05 1.013140e+05 1.013140e+05 1.013210e+05 1.013210e+05 1.013210e+05 1.013191e+05 1.013191e+05 1.013191e+05 1.013196e+05 1.013196e+05 1.013211e+05 1.013211e+05 1.013211e+05 1.013218e+05 1.013218e+05 1.013191e+05 1.013191e+05 1.013191e+05 1.013196e+05 1.013138e+05 1.013138e+05 1.013080e+05 1.013080e+05 1.013080e+05 1.013137e+05 1.013137e+05 1.013150e+05 1.013150e+05 1.013144e+05 1.013144e+05 1.013144e+05 1.013147e+05 1.012963e+05 1.012963e+05 1.012963e+05 1.012976e+05 1.013138e+05 1.013138e+05 1.012970e+05 1.012970e+05 1.012970e+05 1.013065e+05 1.013065e+05 1.013065e+05 1.013071e+05 1.013071e+05 1.012894e+05 1.012894e+05 1.012894e+05 1.012928e+05 1.012928e+05 1.012869e+05 1.012869e+05 1.012866e+05 1.012866e+05 1.012866e+05 1.012866e+05 1.013046e+05 1.013046e+05 1.013001e+05 1.012938e+05 1.012938e+05 1.012938e+05 1.012884e+05 1.013037e+05 1.013024e+05 1.012954e+05 1.012954e+05 1.012954e+05 1.012910e+05 1.012910e+05 1.012910e+05 1.012860e+05 1.012860e+05 1.012860e+05 1.012974e+05 1.012974e+05 1.012974e+05 1.012993e+05 1.012993e+05 1.013048e+05 1.013048e+05 1.013048e+05 1.013030e+05 1.013030e+05 1.013064e+05 1.013064e+05 1.013081e+05 1.013081e+05 1.013066e+05 1.013066e+05 1.013071e+05 1.013183e+05 1.013183e+05 1.013186e+05 1.013186e+05 1.013207e+05 1.013207e+05 1.013244e+05 1.013244e+05 1.013244e+05 1.013244e+05 1.013175e+05 1.013158e+05 1.013158e+05 1.013056e+05 1.013056e+05 1.013056e+05 1.013031e+05 1.013031e+05 1.013031e+05 1.013142e+05 1.013059e+05 1.013059e+05 1.013046e+05 1.013046e+05 1.013051e+05 1.013052e+05 1.013021e+05 1.012872e+05 1.012901e+05 1.012901e+05 1.012960e+05 1.012960e+05 1.012944e+05 1.012987e+05 1.013010e+05 1.013010e+05 1.012872e+05 1.012872e+05 1.012872e+05 1.012852e+05 1.012875e+05 1.013102e+05 1.013112e+05 1.013112e+05 1.012971e+05 1.012987e+05 1.012987e+05 1.013133e+05 1.013050e+05 1.013050e+05 1.012982e+05 1.013088e+05 1.013088e+05 1.013088e+05 1.012914e+05 1.012970e+05 1.012970e+05 1.012964e+05 1.013060e+05 1.013060e+05 1.013060e+05 1.013061e+05 1.013061e+05 1.013062e+05 1.013070e+05 1.013070e+05 1.012987e+05 1.013089e+05 1.013094e+05 1.012878e+05 1.012878e+05 1.012887e+05 1.012894e+05 1.012891e+05 1.012891e+05 1.012898e+05 1.012899e+05 1.012918e+05 1.012918e+05 1.012931e+05 1.013097e+05 1.013111e+05 1.012894e+05 1.013029e+05 1.012847e+05 1.013076e+05 1.013076e+05 1.012941e+05 1.012941e+05 1.012874e+05 1.012951e+05 1.012951e+05 1.012951e+05 1.012953e+05 1.012953e+05 1.013122e+05 1.013122e+05 1.012995e+05 1.013067e+05 1.013071e+05 1.012903e+05 1.012933e+05 1.012933e+05 1.013126e+05 1.013069e+05 1.012994e+05 1.012960e+05 1.013121e+05 1.012996e+05 1.012999e+05 1.012997e+05 1.013010e+05 1.013010e+05 1.013050e+05 1.012867e+05 1.012963e+05 1.012977e+05 1.012912e+05 1.013121e+05 1.013121e+05 1.013114e+05 1.013004e+05 1.013025e+05 1.013025e+05 1.012930e+05 1.013095e+05 1.013095e+05 1.013095e+05 1.013095e+05 1.012906e+05 1.012901e+05 1.013085e+05 1.013085e+05 1.013085e+05 1.013065e+05 1.012947e+05 1.012973e+05 1.012969e+05 1.012969e+05 1.013042e+05 1.013046e+05 1.013022e+05 1.013032e+05 1.012952e+05 1.013096e+05 1.012977e+05 1.012973e+05 1.012973e+05 1.012985e+05 1.012985e+05 1.012960e+05 1.012960e+05 1.013069e+05 1.013069e+05 1.012969e+05 1.013009e+05 1.013120e+05 1.013120e+05 1.013084e+05 1.013084e+05 1.013074e+05 1.012968e+05 1.013091e+05 1.013078e+05 1.013005e+05 1.013015e+05 1.012900e+05 1.012900e+05 1.012922e+05 1.012944e+05 1.013114e+05 1.012939e+05 1.012939e+05 1.013023e+05 1.013030e+05 1.012917e+05 1.012924e+05 1.012936e+05 1.013034e+05 1.012926e+05 1.013106e+05 1.013106e+05 1.013025e+05 1.013145e+05 1.012962e+05 1.013000e+05 1.013127e+05 1.013136e+05 1.013136e+05 1.013136e+05 1.013140e+05 1.013140e+05 1.013051e+05 1.013051e+05 1.013079e+05 1.013065e+05 1.012983e+05 1.012924e+05 1.013082e+05 1.013022e+05 1.012921e+05 1.013056e+05 1.012993e+05 1.012961e+05 1.012961e+05 1.012961e+05 1.013041e+05 1.013051e+05 1.013097e+05 1.013110e+05 1.012953e+05 1.012953e+05 1.012985e+05 1.013008e+05 1.013008e+05 1.013001e+05 1.013001e+05 1.013101e+05 1.012993e+05 1.012999e+05 1.012999e+05 1.013080e+05 1.013080e+05 1.013100e+05 1.013093e+05 1.013093e+05 1.013094e+05 1.012999e+05 1.012999e+05 1.012996e+05 1.012996e+05 1.012996e+05 1.012975e+05 1.013109e+05 1.013153e+05 1.013040e+05 1.013040e+05 1.013037e+05 1.013158e+05 1.013100e+05 1.013112e+05 1.013023e+05 1.012950e+05 1.013108e+05 1.013117e+05 1.013059e+05 1.013059e+05 1.013123e+05 1.013123e+05 1.013077e+05 1.013014e+05 1.013031e+05 1.013031e+05 1.013100e+05 1.013112e+05 1.013158e+05 1.013102e+05 1.013102e+05 1.013102e+05 1.013135e+05 1.013032e+05 1.013032e+05 1.012999e+05 1.013031e+05 1.013031e+05 1.013165e+05 1.013165e+05 1.013162e+05 1.013105e+05 1.013105e+05 1.013105e+05 1.013088e+05 1.013007e+05 1.013156e+05 1.013170e+05 1.013119e+05 1.013119e+05 1.013077e+05 1.013077e+05 1.013064e+05 1.013166e+05 1.013077e+05 1.013060e+05 1.013060e+05 1.013113e+05 1.013032e+05 1.013032e+05 1.013052e+05 1.013077e+05 1.013123e+05 1.013089e+05 1.013089e+05 1.013089e+05 1.013160e+05 1.013153e+05 1.013090e+05 1.013110e+05 1.013110e+05 1.013114e+05 1.013114e+05 1.013114e+05 1.013098e+05 1.013059e+05 1.013128e+05 1.013128e+05 1.013132e+05 1.013075e+05 1.013113e+05 1.013113e+05 1.013113e+05 1.013092e+05 1.013123e+05 1.013125e+05 1.013193e+05 1.013183e+05 1.013183e+05 1.013155e+05 1.013132e+05 1.013128e+05 1.013143e+05 1.013143e+05 1.013105e+05 1.013105e+05 1.013084e+05 1.013089e+05 1.013156e+05 1.013156e+05 1.013156e+05 1.013107e+05 1.013191e+05 1.013110e+05 1.013197e+05 1.013200e+05 1.013148e+05 1.013130e+05 1.013115e+05 1.013094e+05 1.013116e+05 1.013129e+05 1.013129e+05 1.013170e+05 1.013170e+05 1.013170e+05 1.013212e+05 1.013155e+05 1.013164e+05 1.013158e+05 1.013168e+05 1.013166e+05 1.013170e+05 1.013204e+05 1.013191e+05 1.013155e+05 1.013155e+05 1.013155e+05 1.013140e+05 1.013131e+05 1.013186e+05 1.013186e+05 1.013169e+05 1.013169e+05 1.013193e+05 1.013200e+05 1.013177e+05 1.013206e+05 1.013191e+05 1.013223e+05 1.013206e+05 1.013206e+05 1.013212e+05 1.013224e+05 1.013224e+05 1.013215e+05 1.013215e+05 1.013222e+05 1.013222e+05 1.013212e+05 1.013230e+05 1.013230e+05 1.013210e+05 1.013235e+05 1.013238e+05 1.013242e+05 1.013232e+05 1.013232e+05 1.013232e+05 1.013082e+05 1.013082e+05 1.013082e+05 1.013078e+05 1.013078e+05 1.013225e+05 1.013225e+05 1.013225e+05 1.013227e+05 1.013070e+05 1.013070e+05 1.013075e+05 1.013075e+05 1.012955e+05 1.012955e+05 1.012955e+05 1.013225e+05 1.013225e+05 1.013225e+05 1.013225e+05 1.013183e+05 1.013183e+05 1.013183e+05 1.013187e+05 1.013197e+05 1.013197e+05 1.013164e+05 1.013164e+05 1.013164e+05 1.013147e+05 1.013147e+05 1.013147e+05 1.013113e+05 1.013113e+05 1.013113e+05 1.013102e+05 1.013102e+05 1.013102e+05 1.013098e+05 1.013214e+05 1.013214e+05 1.013214e+05 1.013200e+05 1.013200e+05 1.013200e+05 1.013219e+05 1.013219e+05 1.013219e+05 1.013208e+05 1.013208e+05 1.013208e+05 1.013205e+05 1.013205e+05 1.013233e+05 1.013233e+05 1.013225e+05 1.013219e+05 1.013237e+05 1.013237e+05 1.013237e+05 1.013212e+05 1.013212e+05 1.013154e+05 1.013154e+05 1.013154e+05 1.013179e+05 1.013179e+05 1.013179e+05 1.013150e+05 1.013150e+05 1.013150e+05 1.013146e+05 1.013136e+05 1.013136e+05 1.013136e+05 1.013138e+05 1.013130e+05 1.013130e+05 1.013130e+05 1.013155e+05 1.013155e+05 1.013155e+05 1.013154e+05 1.013152e+05 1.013177e+05 1.013177e+05 1.013177e+05 1.013131e+05 1.013131e+05 1.013145e+05 1.013145e+05 1.013149e+05 1.013159e+05 1.013159e+05 1.013189e+05 1.013189e+05 1.013189e+05 1.013197e+05 1.013197e+05 1.013196e+05 1.013196e+05 1.013196e+05 1.013148e+05 1.013210e+05 1.013210e+05 1.013210e+05 1.013227e+05 1.013225e+05 1.013243e+05 1.013243e+05 1.013234e+05 1.013234e+05 1.013195e+05 1.013195e+05 1.013195e+05 1.013198e+05 1.013201e+05 1.013086e+05 1.013086e+05 1.013152e+05 1.013068e+05 1.013129e+05 1.013129e+05 1.013129e+05 1.013166e+05 1.013107e+05 1.013107e+05 1.013153e+05 1.013175e+05 1.013175e+05 1.013175e+05 1.013207e+05 1.013207e+05 1.013181e+05 1.013181e+05 1.013181e+05 1.013033e+05 1.013033e+05 1.013033e+05 1.013097e+05 1.013091e+05 1.013207e+05 1.013060e+05 1.013060e+05 1.013060e+05 1.013048e+05 1.013126e+05 1.013126e+05 1.013189e+05 1.013189e+05 1.013162e+05 1.013107e+05 1.013107e+05 1.013117e+05 1.013117e+05 1.013166e+05 1.013166e+05 1.013166e+05 1.013220e+05 1.013220e+05 1.013228e+05 1.013228e+05 1.013141e+05 1.013174e+05 1.013174e+05 1.013174e+05 1.013161e+05 1.013161e+05 1.013199e+05 1.013199e+05 1.013083e+05 1.013083e+05 1.013224e+05 1.013224e+05 1.013170e+05 1.013186e+05 1.013186e+05 1.013186e+05 1.013186e+05 1.013114e+05 1.013114e+05 1.013114e+05 1.013182e+05 1.013182e+05 1.013182e+05 1.013104e+05 1.013146e+05 1.013160e+05 1.013165e+05 1.013165e+05 1.013168e+05 1.013122e+05 1.013191e+05 1.013191e+05 1.013201e+05 1.013201e+05 1.013201e+05 1.013097e+05 1.013100e+05 1.013100e+05 1.013203e+05 1.013203e+05 1.013204e+05 1.013186e+05 1.013185e+05 1.013185e+05 1.013221e+05 1.013221e+05 1.013221e+05 1.013207e+05 1.013207e+05 1.013226e+05 1.013195e+05 1.013167e+05 1.013167e+05 1.013235e+05 1.013159e+05 1.013159e+05 1.013172e+05 1.013179e+05 1.013179e+05 1.013179e+05 1.013215e+05 1.013215e+05 1.013153e+05 1.013153e+05 1.013207e+05 1.013179e+05 1.013179e+05 1.013189e+05 1.013189e+05 1.013190e+05 1.013206e+05 1.013169e+05 1.013169e+05 1.013192e+05 1.013187e+05 1.013117e+05 1.013117e+05 1.013164e+05 1.013176e+05 1.013220e+05 1.013220e+05 1.013220e+05 1.013216e+05 1.013216e+05 1.013216e+05 1.013195e+05 1.013195e+05 1.013229e+05 1.013229e+05 1.013229e+05 1.013182e+05 1.013221e+05 1.013216e+05 1.013217e+05 1.013224e+05 1.013224e+05 1.013224e+05 1.013193e+05 1.013211e+05 1.013211e+05 1.013206e+05 1.013206e+05 1.013206e+05 1.013235e+05 1.013188e+05 1.013208e+05 1.013208e+05 1.013215e+05 1.013215e+05 1.013215e+05 1.013213e+05 1.013221e+05 1.013161e+05 1.013161e+05 1.013161e+05 1.013169e+05 1.013169e+05 1.013177e+05 1.013235e+05 1.013218e+05 1.013201e+05 1.013218e+05 1.013218e+05 1.013218e+05 1.013217e+05 1.013217e+05 1.013231e+05 1.013231e+05 1.013231e+05 1.013211e+05 1.013210e+05 1.013184e+05 1.013221e+05 1.013224e+05 1.013219e+05 1.013185e+05 1.013235e+05 1.013235e+05 1.013235e+05 1.013230e+05 1.013230e+05 1.013215e+05 1.013234e+05 1.013234e+05 1.013234e+05 1.013229e+05 1.013229e+05 1.013197e+05 1.013197e+05 1.013200e+05 1.013225e+05 1.013225e+05 1.013230e+05 1.013207e+05 1.013214e+05 1.013231e+05 1.013235e+05 1.013228e+05 1.013217e+05 1.013235e+05 1.013238e+05 1.012992e+05 1.012992e+05 1.013127e+05 1.013127e+05 1.013022e+05 1.013022e+05 1.013116e+05 1.013092e+05 1.013020e+05 1.013005e+05 1.012937e+05 1.013235e+05 1.013235e+05 1.013219e+05 1.013153e+05 1.013148e+05 1.013225e+05 1.013225e+05 1.012984e+05 1.013001e+05 1.012970e+05 1.012991e+05 1.012991e+05 1.012991e+05 1.013032e+05 1.013032e+05 1.013032e+05 1.012972e+05 1.013044e+05 1.013044e+05 1.013051e+05 1.013051e+05 1.013003e+05 1.013023e+05 1.013020e+05 1.013207e+05 1.013232e+05 1.013236e+05 1.013241e+05 1.013228e+05 1.013228e+05 1.013193e+05 1.013067e+05 1.013012e+05 1.013048e+05 1.013057e+05 1.013057e+05 1.013101e+05 1.013140e+05 1.013172e+05 1.013190e+05 1.013190e+05 1.013206e+05 1.013229e+05 1.013224e+05 1.013234e+05 1.013234e+05 1.013234e+05 1.013203e+05 1.013217e+05 1.013213e+05 1.013213e+05 1.013129e+05 1.013203e+05 1.013203e+05 1.013170e+05 1.013136e+05 1.013184e+05 1.013184e+05 1.013233e+05 1.013233e+05 1.013233e+05 1.013232e+05 1.013232e+05 1.013234e+05 1.013178e+05 1.013186e+05 1.013194e+05 1.013211e+05 1.013228e+05 1.013120e+05 1.013157e+05 1.013159e+05 1.013210e+05 1.013179e+05 1.013218e+05 1.013199e+05 1.013216e+05 1.013216e+05 1.013226e+05 1.013210e+05 1.013215e+05 1.013225e+05 1.013211e+05 1.013233e+05 1.013230e+05 1.013230e+05 1.013231e+05 1.013224e+05 1.013229e+05 1.013212e+05 1.013212e+05 1.013206e+05 1.013205e+05 1.013221e+05 1.013220e+05 1.013227e+05 1.013222e+05 1.013231e+05 1.013210e+05 1.013230e+05 1.013230e+05 1.013230e+05 1.013230e+05 1.013228e+05 1.013228e+05 1.013222e+05 1.013222e+05 1.013227e+05 1.013226e+05 1.013226e+05 1.013233e+05 1.013223e+05 1.013227e+05 1.013225e+05 1.013233e+05 1.013232e+05 1.013235e+05 1.013235e+05 1.013234e+05 1.013208e+05 1.013231e+05 1.013231e+05 1.013232e+05 1.013232e+05 1.013227e+05 1.013233e+05 1.013233e+05 1.013232e+05 1.013232e+05 1.012876e+05 1.012876e+05 1.012863e+05 1.012851e+05 1.012847e+05 1.012852e+05 1.012854e+05 1.012852e+05 1.013049e+05 1.013049e+05 1.013049e+05 1.013040e+05 1.013002e+05 1.013002e+05 1.013002e+05 1.013001e+05 1.012878e+05 1.012878e+05 1.012876e+05 1.012876e+05 1.012884e+05 1.012874e+05 1.012874e+05 1.012874e+05 1.012859e+05 1.012969e+05 1.012969e+05 1.012969e+05 1.012970e+05 1.012982e+05 1.012994e+05 1.012872e+05 1.012872e+05 1.012894e+05 1.012867e+05 1.012867e+05 1.012867e+05 1.012936e+05 1.012936e+05 1.012936e+05 1.012914e+05 1.012914e+05 1.012923e+05 1.012954e+05 1.012880e+05 1.012892e+05 1.012892e+05 1.012886e+05 1.012903e+05 1.012939e+05 1.012939e+05 1.012939e+05 1.012955e+05 1.012955e+05 1.012923e+05 1.012914e+05 1.012915e+05 1.012895e+05 1.012923e+05 1.012923e+05 1.012933e+05 1.012938e+05 1.012952e+05 1.012969e+05 1.012991e+05 1.013035e+05 1.013035e+05 1.013062e+05 1.013079e+05 1.013100e+05 1.013100e+05 1.013100e+05 1.013122e+05 1.013122e+05 1.013155e+05 1.013172e+05 1.013172e+05 1.013221e+05 1.013187e+05 1.013187e+05 1.013187e+05 1.013189e+05 1.013189e+05 1.013169e+05 1.013169e+05 1.013169e+05 1.013064e+05 1.013064e+05 1.013190e+05 1.013232e+05 1.013232e+05 1.013232e+05 1.013151e+05 1.013151e+05 1.013151e+05 1.013156e+05 1.013158e+05 1.013219e+05 1.013219e+05 1.013219e+05 1.013135e+05 1.013135e+05 1.013135e+05 1.013065e+05 1.013065e+05 1.013065e+05 1.013065e+05 1.013065e+05 1.013104e+05 1.013104e+05 1.013104e+05 1.013169e+05 1.013169e+05 1.013091e+05 1.013091e+05 1.013091e+05 1.013094e+05 1.013094e+05 1.013122e+05 1.013122e+05 1.013122e+05 1.013216e+05 1.013216e+05 1.013216e+05 1.013134e+05 1.013134e+05 1.013134e+05 1.013122e+05 1.013122e+05 1.013214e+05 1.013214e+05 1.013214e+05 1.013217e+05 1.013217e+05 1.013241e+05 1.013225e+05 1.013225e+05 1.013225e+05 1.013225e+05 1.013202e+05 1.013202e+05 1.013202e+05 1.013205e+05 1.013224e+05 1.013224e+05 1.013224e+05 1.013163e+05 1.013154e+05 1.013175e+05 1.013175e+05 1.013175e+05 1.013172e+05 1.013228e+05 1.013228e+05 1.013228e+05 1.013105e+05 1.013105e+05 1.013105e+05 1.013114e+05 1.013114e+05 1.013136e+05 1.013136e+05 1.013136e+05 1.013134e+05 1.013120e+05 1.013120e+05 1.013132e+05 1.013132e+05 1.013101e+05 1.013107e+05 1.013111e+05 1.013168e+05 1.012954e+05 1.013102e+05 1.013079e+05 1.013076e+05 1.013076e+05 1.013221e+05 1.013221e+05 1.013221e+05 1.013181e+05 1.013181e+05 1.013235e+05 1.013235e+05 1.013235e+05 1.013056e+05 1.013056e+05 1.013056e+05 1.013197e+05 1.013197e+05 1.013148e+05 1.013148e+05 1.013178e+05 1.013178e+05 1.013178e+05 1.013153e+05 1.013153e+05 1.013153e+05 1.013141e+05 1.013141e+05 1.013141e+05 1.013051e+05 1.013214e+05 1.013214e+05 1.013162e+05 1.013162e+05 1.013174e+05 1.013174e+05 1.013118e+05 1.013118e+05 1.013113e+05 1.013081e+05 1.013081e+05 1.013081e+05 1.013082e+05 1.012968e+05 1.012986e+05 1.013102e+05 1.013200e+05 1.013200e+05 1.013200e+05 1.013130e+05 1.013130e+05 1.013049e+05 1.013049e+05 1.013037e+05 1.013037e+05 1.013041e+05 1.013041e+05 1.013149e+05 1.013149e+05 1.013142e+05 1.013086e+05 1.013086e+05 1.013192e+05 1.013192e+05 1.013192e+05 1.013134e+05 1.013142e+05 1.013105e+05 1.013184e+05 1.013184e+05 1.013184e+05 1.013180e+05 1.013180e+05 1.013180e+05 1.013164e+05 1.013198e+05 1.013198e+05 1.013198e+05 1.013204e+05 1.013204e+05 1.013204e+05 1.013156e+05 1.013156e+05 1.013061e+05 1.013074e+05 1.013176e+05 1.013176e+05 1.013170e+05 1.013170e+05 1.013167e+05 1.013171e+05 1.013122e+05 1.013159e+05 1.013155e+05 1.013155e+05 1.013151e+05 1.013183e+05 1.013202e+05 1.013202e+05 1.013114e+05 1.013110e+05 1.013186e+05 1.013186e+05 1.013199e+05 1.013167e+05 1.013167e+05 1.013162e+05 1.013194e+05 1.013194e+05 1.013194e+05 1.013171e+05 1.013173e+05 1.013191e+05 1.013191e+05 1.013191e+05 1.013206e+05 1.013206e+05 1.013094e+05 1.013159e+05 1.013142e+05 1.013142e+05 1.013145e+05 1.013214e+05 1.013160e+05 1.013160e+05 1.013160e+05 1.013162e+05 1.013167e+05 1.013219e+05 1.013219e+05 1.013219e+05 1.013216e+05 1.013207e+05 1.013207e+05 1.013207e+05 1.013207e+05 1.013182e+05 1.013150e+05 1.013159e+05 1.013154e+05 1.013187e+05 1.013187e+05 1.013187e+05 1.013188e+05 1.013188e+05 1.013214e+05 1.013214e+05 1.013214e+05 1.013166e+05 1.013208e+05 1.013210e+05 1.013210e+05 1.013192e+05 1.013192e+05 1.013180e+05 1.013175e+05 1.013201e+05 1.013201e+05 1.013201e+05 1.013218e+05 1.013218e+05 1.013225e+05 1.013225e+05 1.013225e+05 1.013203e+05 1.013203e+05 1.013198e+05 1.013210e+05 1.013210e+05 1.013231e+05 1.013231e+05 1.013229e+05 1.013229e+05 1.013198e+05 1.013191e+05 1.013191e+05 1.013228e+05 1.013228e+05 1.013179e+05 1.013212e+05 1.013210e+05 1.013210e+05 1.013200e+05 1.013216e+05 1.013216e+05 1.013204e+05 1.013204e+05 1.013204e+05 1.013207e+05 1.013226e+05 1.013226e+05 1.013226e+05 1.013221e+05 1.013225e+05 1.013168e+05 1.013168e+05 1.013168e+05 1.013191e+05 1.013212e+05 1.013219e+05 1.013213e+05 1.013208e+05 1.013199e+05 1.013183e+05 1.013222e+05 1.013222e+05 1.013226e+05 1.013234e+05 1.013234e+05 1.013234e+05 1.013220e+05 1.013220e+05 1.013194e+05 1.013222e+05 1.013223e+05 1.013224e+05 1.013196e+05 1.013226e+05 1.013226e+05 1.013220e+05 1.013202e+05 1.013236e+05 1.013236e+05 1.013208e+05 1.013208e+05 1.013214e+05 1.013230e+05 1.013236e+05 1.013231e+05 1.013231e+05 1.013231e+05 1.013232e+05 1.013208e+05 1.013222e+05 1.013237e+05 1.013233e+05 1.013233e+05 1.013233e+05 1.013232e+05 1.013232e+05 1.013237e+05 1.013225e+05 1.013225e+05 1.013236e+05 1.013219e+05 1.013219e+05 1.013219e+05 1.013226e+05 1.013237e+05 1.013237e+05 1.013237e+05 1.013228e+05 1.013231e+05 1.013231e+05 1.013236e+05 1.013221e+05 1.013221e+05 1.013235e+05 1.013236e+05 1.013236e+05 1.013233e+05 1.013233e+05 1.013231e+05 1.013239e+05 1.013238e+05 1.013238e+05 1.013239e+05 1.013235e+05 1.013235e+05 1.013238e+05 1.013168e+05 1.013089e+05 1.013020e+05 1.012978e+05 1.012978e+05 1.013151e+05 1.013124e+05 1.013124e+05 1.013081e+05 1.013078e+05 1.013035e+05 1.013035e+05 1.013012e+05 1.013073e+05 1.012975e+05 1.013002e+05 1.013030e+05 1.013187e+05 1.013216e+05 1.013231e+05 1.013142e+05 1.013008e+05 1.013018e+05 1.013063e+05 1.013206e+05 1.013206e+05 1.013227e+05 1.013228e+05 1.013142e+05 1.013228e+05 1.013134e+05 1.013230e+05 1.013234e+05 1.013234e+05 1.013234e+05 1.013223e+05 1.013182e+05 1.013182e+05 1.013185e+05 1.013138e+05 1.013128e+05 1.013153e+05 1.013195e+05 1.013157e+05 1.013184e+05 1.013205e+05 1.013209e+05 1.013209e+05 1.013216e+05 1.013222e+05 1.013187e+05 1.013205e+05 1.013205e+05 1.013189e+05 1.013201e+05 1.013224e+05 1.013206e+05 1.013223e+05 1.013225e+05 1.013210e+05 1.013222e+05 1.013221e+05 1.013221e+05 1.013212e+05 1.013218e+05 1.013217e+05 1.013231e+05 1.013232e+05 1.013232e+05 1.013226e+05 1.013208e+05 1.013228e+05 1.013228e+05 1.013221e+05 1.013232e+05 1.013232e+05 1.013230e+05 1.013230e+05 1.013225e+05 1.013228e+05 1.013222e+05 1.013221e+05 1.013234e+05 1.013234e+05 1.013234e+05 1.013212e+05 1.013227e+05 1.013229e+05 1.013234e+05 1.013224e+05 1.013212e+05 1.013215e+05 1.013230e+05 1.013218e+05 1.013227e+05 1.013227e+05 1.013227e+05 1.013232e+05 1.013232e+05 1.013225e+05 1.013225e+05 1.013224e+05 1.013195e+05 1.013229e+05 1.013231e+05 1.013232e+05 1.013235e+05 1.013234e+05 1.013231e+05 1.013227e+05 1.013229e+05 1.013233e+05 1.013127e+05 1.013122e+05 1.013116e+05 1.013111e+05 1.013102e+05 1.013097e+05 1.013093e+05 1.013089e+05 1.013080e+05 1.013069e+05 1.013065e+05 1.013055e+05 1.013055e+05 1.013053e+05 1.013048e+05 1.013049e+05 1.013044e+05 1.013040e+05 1.013038e+05 1.013039e+05 1.013037e+05 1.013032e+05 1.013031e+05 1.013023e+05 1.013018e+05 1.013015e+05 1.013012e+05 1.013010e+05 1.013001e+05 1.012992e+05 1.012987e+05 1.012984e+05 1.012979e+05 1.012974e+05 1.012971e+05 1.012961e+05 1.012955e+05 1.012955e+05 1.012950e+05 1.012941e+05 1.012936e+05 1.012936e+05 1.012925e+05 1.012924e+05 1.012935e+05 1.012929e+05 1.012926e+05 1.012914e+05 1.012914e+05 1.012927e+05 1.012922e+05 1.012921e+05 1.012915e+05 1.012909e+05 1.012907e+05 1.012902e+05 1.012899e+05 1.012879e+05 1.012877e+05 1.012880e+05 1.012875e+05 1.012872e+05 1.012872e+05 1.012875e+05 1.012876e+05 1.012869e+05 1.012850e+05 1.012841e+05 1.012839e+05 1.012838e+05 1.012841e+05 1.012845e+05 1.012846e+05 1.012850e+05 1.012850e+05 1.012852e+05 1.012856e+05 1.012877e+05 1.012903e+05 1.012929e+05 1.012945e+05 1.012945e+05 1.012978e+05 1.013002e+05 1.013012e+05 1.013020e+05 1.013020e+05 1.013035e+05 1.013050e+05 1.013058e+05 1.013064e+05 1.013067e+05 1.013079e+05 1.013083e+05 1.013089e+05 1.013101e+05 1.013107e+05 1.013112e+05 1.013120e+05 1.013124e+05 1.013128e+05 1.013134e+05 1.013134e+05 1.013139e+05 1.013146e+05 1.013148e+05 1.013151e+05 1.013154e+05 1.013157e+05 1.013162e+05 1.013166e+05 1.013168e+05 1.013170e+05 1.013174e+05 1.013177e+05 1.013181e+05 1.013182e+05 1.013184e+05 1.013187e+05 1.013188e+05 1.013191e+05 1.013192e+05 1.013195e+05 1.013197e+05 1.013199e+05 1.013201e+05 1.013202e+05 1.013205e+05 1.013205e+05 1.013207e+05 1.013209e+05 1.013212e+05 1.013212e+05 1.013214e+05 1.013216e+05 1.013216e+05 1.013218e+05 1.013220e+05 1.013221e+05 1.013222e+05 1.013222e+05 1.013224e+05 1.013224e+05 1.013225e+05 1.013226e+05 1.013228e+05 1.013228e+05 1.013229e+05 1.013231e+05 1.013231e+05 1.013232e+05 1.013232e+05 1.013233e+05 1.013234e+05 1.013234e+05 1.013226e+05 1.013226e+05 1.013226e+05 1.013228e+05 1.013236e+05 1.013236e+05 1.013236e+05 1.013225e+05 1.013225e+05 1.013225e+05 1.013228e+05 1.013202e+05 1.013202e+05 1.013202e+05 1.013197e+05 1.013168e+05 1.013168e+05 1.013168e+05 1.013162e+05 1.013045e+05 1.013045e+05 1.013045e+05 1.013048e+05 1.013060e+05 1.013086e+05 1.013086e+05 1.013086e+05 1.013093e+05 1.013183e+05 1.013183e+05 1.013183e+05 1.013145e+05 1.013145e+05 1.013145e+05 1.013146e+05 1.013140e+05 1.012994e+05 1.012994e+05 1.012994e+05 1.012979e+05 1.013137e+05 1.013137e+05 1.013137e+05 1.013147e+05 1.013147e+05 1.013023e+05 1.013023e+05 1.013023e+05 1.013022e+05 1.013028e+05 1.012943e+05 1.012943e+05 1.012943e+05 1.012942e+05 1.012950e+05 1.013046e+05 1.013046e+05 1.013046e+05 1.013050e+05 1.012903e+05 1.012903e+05 1.012903e+05 1.013122e+05 1.013122e+05 1.013036e+05 1.013036e+05 1.012979e+05 1.012979e+05 1.012979e+05 1.012963e+05 1.012934e+05 1.012934e+05 1.012934e+05 1.012918e+05 1.012886e+05 1.012886e+05 1.012901e+05 1.012901e+05 1.012997e+05 1.012997e+05 1.012997e+05 1.012987e+05 1.012987e+05 1.012940e+05 1.012940e+05 1.012940e+05 1.012957e+05 1.012957e+05 1.013133e+05 1.013014e+05 1.013014e+05 1.013014e+05 1.013016e+05 1.013122e+05 1.013122e+05 1.013122e+05 1.013125e+05 1.013125e+05 1.013094e+05 1.013094e+05 1.013094e+05 1.013107e+05 1.013107e+05 1.013088e+05 1.013088e+05 1.013088e+05 1.013080e+05 1.013080e+05 1.013069e+05 1.013069e+05 1.013069e+05 1.013082e+05 1.013082e+05 1.013220e+05 1.013220e+05 1.013220e+05 1.013221e+05 1.013176e+05 1.013176e+05 1.013176e+05 1.013171e+05 1.013144e+05 1.013144e+05 1.013144e+05 1.013140e+05 1.013140e+05 1.013210e+05 1.013210e+05 1.013210e+05 1.013191e+05 1.013191e+05 1.013191e+05 1.013196e+05 1.013196e+05 1.013211e+05 1.013211e+05 1.013211e+05 1.013218e+05 1.013218e+05 1.013191e+05 1.013191e+05 1.013191e+05 1.013196e+05 1.013138e+05 1.013138e+05 1.013080e+05 1.013080e+05 1.013080e+05 1.013137e+05 1.013137e+05 1.013150e+05 1.013150e+05 1.013144e+05 1.013144e+05 1.013144e+05 1.013147e+05 1.012963e+05 1.012963e+05 1.012963e+05 1.012976e+05 1.013138e+05 1.013138e+05 1.012970e+05 1.012970e+05 1.012970e+05 1.013065e+05 1.013065e+05 1.013065e+05 1.013071e+05 1.013071e+05 1.012894e+05 1.012894e+05 1.012894e+05 1.012928e+05 1.012928e+05 1.012869e+05 1.012869e+05 1.012866e+05 1.012866e+05 1.012866e+05 1.012866e+05 1.013046e+05 1.013046e+05 1.013001e+05 1.012938e+05 1.012938e+05 1.012938e+05 1.012884e+05 1.013037e+05 1.013024e+05 1.012954e+05 1.012954e+05 1.012954e+05 1.012910e+05 1.012910e+05 1.012910e+05 1.012860e+05 1.012860e+05 1.012860e+05 1.012974e+05 1.012974e+05 1.012974e+05 1.012993e+05 1.012993e+05 1.013048e+05 1.013048e+05 1.013048e+05 1.013030e+05 1.013030e+05 1.013064e+05 1.013064e+05 1.013081e+05 1.013081e+05 1.013066e+05 1.013066e+05 1.013071e+05 1.013183e+05 1.013183e+05 1.013186e+05 1.013186e+05 1.013207e+05 1.013207e+05 1.013244e+05 1.013244e+05 1.013244e+05 1.013244e+05 1.013175e+05 1.013158e+05 1.013158e+05 1.013056e+05 1.013056e+05 1.013056e+05 1.013031e+05 1.013031e+05 1.013031e+05 1.013142e+05 1.013059e+05 1.013059e+05 1.013046e+05 1.013046e+05 1.013051e+05 1.013052e+05 1.013021e+05 1.012872e+05 1.012901e+05 1.012901e+05 1.012960e+05 1.012960e+05 1.012944e+05 1.012987e+05 1.013010e+05 1.013010e+05 1.012872e+05 1.012872e+05 1.012872e+05 1.012852e+05 1.012875e+05 1.013102e+05 1.013112e+05 1.013112e+05 1.012971e+05 1.012987e+05 1.012987e+05 1.013133e+05 1.013050e+05 1.013050e+05 1.012982e+05 1.013088e+05 1.013088e+05 1.013088e+05 1.012914e+05 1.012970e+05 1.012970e+05 1.012964e+05 1.013060e+05 1.013060e+05 1.013060e+05 1.013061e+05 1.013061e+05 1.013062e+05 1.013070e+05 1.013070e+05 1.012987e+05 1.013089e+05 1.013094e+05 1.012878e+05 1.012878e+05 1.012887e+05 1.012894e+05 1.012891e+05 1.012891e+05 1.012898e+05 1.012899e+05 1.012918e+05 1.012918e+05 1.012931e+05 1.013097e+05 1.013111e+05 1.012894e+05 1.013029e+05 1.012847e+05 1.013076e+05 1.013076e+05 1.012941e+05 1.012941e+05 1.012874e+05 1.012951e+05 1.012951e+05 1.012951e+05 1.012953e+05 1.012953e+05 1.013122e+05 1.013122e+05 1.012995e+05 1.013067e+05 1.013071e+05 1.012903e+05 1.012933e+05 1.012933e+05 1.013126e+05 1.013069e+05 1.012994e+05 1.012960e+05 1.013121e+05 1.012996e+05 1.012999e+05 1.012997e+05 1.013010e+05 1.013010e+05 1.013050e+05 1.012867e+05 1.012963e+05 1.012977e+05 1.012912e+05 1.013121e+05 1.013121e+05 1.013114e+05 1.013004e+05 1.013025e+05 1.013025e+05 1.012930e+05 1.013095e+05 1.013095e+05 1.013095e+05 1.013095e+05 1.012906e+05 1.012901e+05 1.013