<?xml version="1.0"?>
 <VTKFile type="UnstructuredGrid" version="1.0" byte_order="LittleEndian" header_type="UInt64">
  <UnstructuredGrid>
    <FieldData>
     <DataArray type="Float64" Name="TimeValue" NumberOfTuples="1" format="ascii">
0.00017
     </DataArray>
    </FieldData>
   <Piece NumberOfPoints="3548" NumberOfCells="3379">
    <PointData>
     <DataArray type="Float64" Name="pointP" format="ascii">
8.917733e+04 8.858593e+04 8.800761e+04 8.752742e+04 8.677650e+04 8.625017e+04 8.565951e+04 8.508150e+04 8.442627e+04 8.392855e+04 8.340238e+04 8.282814e+04 8.236388e+04 8.178446e+04 8.130412e+04 8.083546e+04 8.023585e+04 7.974446e+04 7.926968e+04 7.876220e+04 7.822660e+04 7.775504e+04 7.728520e+04 7.677888e+04 7.632562e+04 7.588396e+04 7.542028e+04 7.499002e+04 7.451642e+04 7.413179e+04 7.371378e+04 7.331290e+04 7.289641e+04 7.248050e+04 7.211798e+04 7.171117e+04 7.133549e+04 7.095421e+04 7.063202e+04 7.023877e+04 6.993373e+04 6.960022e+04 6.919367e+04 6.894862e+04 6.860721e+04 6.827775e+04 6.800183e+04 6.767924e+04 6.744368e+04 6.719765e+04 6.694029e+04 6.670012e+04 6.645091e+04 6.622560e+04 6.603649e+04 6.586006e+04 6.566916e+04 6.546142e+04 6.527770e+04 6.512417e+04 6.497502e+04 6.483712e+04 6.467011e+04 6.459609e+04 6.448526e+04 6.435282e+04 6.425747e+04 6.414912e+04 6.405760e+04 6.399213e+04 6.394644e+04 6.388377e+04 6.380919e+04 6.380575e+04 6.375186e+04 6.377565e+04 6.377445e+04 6.451395e+04 6.522847e+04 6.629716e+04 6.706899e+04 6.706899e+04 6.807161e+04 6.902179e+04 6.958492e+04 7.012517e+04 7.012517e+04 7.095686e+04 7.165916e+04 7.217030e+04 7.266973e+04 7.287021e+04 7.388816e+04 7.410945e+04 7.450412e+04 7.510512e+04 7.553888e+04 7.589236e+04 7.648567e+04 7.685798e+04 7.727234e+04 7.789420e+04 7.789420e+04 7.839538e+04 7.909751e+04 7.927803e+04 7.963421e+04 7.988600e+04 8.024208e+04 8.082212e+04 8.136627e+04 8.153592e+04 8.183907e+04 8.227041e+04 8.247029e+04 8.309225e+04 8.326672e+04 8.357389e+04 8.389118e+04 8.405286e+04 8.465863e+04 8.476025e+04 8.515928e+04 8.542771e+04 8.566121e+04 8.612336e+04 8.622753e+04 8.679318e+04 8.679318e+04 8.706007e+04 8.743312e+04 8.793088e+04 8.793088e+04 8.833896e+04 8.872361e+04 8.872361e+04 8.905690e+04 8.938947e+04 8.960996e+04 9.000821e+04 9.000821e+04 9.046177e+04 9.046177e+04 9.073102e+04 9.096651e+04 9.128970e+04 9.148995e+04 9.167380e+04 9.208847e+04 9.208847e+04 9.240655e+04 9.262051e+04 9.282617e+04 9.314448e+04 9.314448e+04 9.087692e+04 9.087692e+04 9.087692e+04 9.121571e+04 9.742383e+04 9.742383e+04 9.742383e+04 9.386084e+04 9.386084e+04 9.386084e+04 9.486861e+04 8.744096e+04 8.744096e+04 8.744096e+04 8.661036e+04 8.257695e+04 8.257695e+04 8.257695e+04 8.165836e+04 7.089018e+04 7.089018e+04 7.089018e+04 7.112024e+04 7.175626e+04 7.374370e+04 7.374370e+04 7.374370e+04 7.419068e+04 9.096974e+04 9.096974e+04 9.096974e+04 8.404564e+04 8.404564e+04 8.404564e+04 8.445141e+04 8.426108e+04 6.853231e+04 6.853231e+04 6.853231e+04 6.797889e+04 8.823301e+04 8.823301e+04 8.823301e+04 8.901391e+04 8.901391e+04 7.560288e+04 7.560288e+04 7.560288e+04 7.545379e+04 7.546332e+04 6.858713e+04 6.858713e+04 6.858713e+04 6.845347e+04 6.852629e+04 7.719519e+04 7.719519e+04 7.719519e+04 7.714858e+04 6.576229e+04 6.576229e+04 6.576229e+04 8.836869e+04 8.836869e+04 7.737170e+04 7.737170e+04 7.210854e+04 7.210854e+04 7.210854e+04 7.170214e+04 6.701715e+04 6.701715e+04 6.701715e+04 6.654981e+04 6.473197e+04 6.473197e+04 6.528743e+04 6.528743e+04 7.149933e+04 7.149933e+04 7.149933e+04 7.131394e+04 7.131394e+04 6.653189e+04 6.653189e+04 6.653189e+04 6.707529e+04 6.707529e+04 8.911273e+04 7.129016e+04 7.129016e+04 7.129016e+04 7.178497e+04 8.521106e+04 8.521106e+04 8.521106e+04 8.496546e+04 8.496546e+04 8.059095e+04 8.059095e+04 8.059095e+04 8.168314e+04 8.168314e+04 7.707157e+04 7.707157e+04 7.707157e+04 7.695847e+04 7.695847e+04 7.484036e+04 7.484036e+04 7.484036e+04 7.594586e+04 7.594586e+04 8.943597e+04 8.943597e+04 8.943597e+04 8.958891e+04 8.891151e+04 8.891151e+04 8.891151e+04 8.816173e+04 7.993035e+04 7.993035e+04 7.993035e+04 7.902382e+04 7.902382e+04 9.426884e+04 9.426884e+04 9.426884e+04 8.818552e+04 8.818552e+04 8.818552e+04 8.857078e+04 8.857078e+04 9.286210e+04 9.286210e+04 9.286210e+04 9.439502e+04 9.439502e+04 8.633814e+04 8.633814e+04 8.633814e+04 8.743744e+04 7.989670e+04 7.989670e+04 7.313160e+04 7.313160e+04 7.313160e+04 8.549538e+04 8.549538e+04 8.675965e+04 8.675965e+04 8.741509e+04 8.741509e+04 8.741509e+04 8.739523e+04 6.711266e+04 6.711266e+04 6.711266e+04 6.755436e+04 8.752141e+04 8.752141e+04 6.759622e+04 6.759622e+04 6.759622e+04 7.996735e+04 7.996735e+04 7.996735e+04 7.973521e+04 7.973521e+04 6.527754e+04 6.527754e+04 6.527754e+04 6.588062e+04 6.588062e+04 6.437036e+04 6.437036e+04 6.420268e+04 6.440698e+04 6.440698e+04 6.440698e+04 8.007998e+04 8.007998e+04 7.451642e+04 6.727260e+04 6.727260e+04 6.727260e+04 6.532197e+04 7.716794e+04 7.669007e+04 6.935748e+04 6.935748e+04 6.935748e+04 6.599756e+04 6.599756e+04 6.599756e+04 6.450468e+04 6.450468e+04 6.450468e+04 6.825882e+04 6.825882e+04 6.825882e+04 6.911904e+04 6.911904e+04 7.216747e+04 7.216747e+04 7.216747e+04 7.110357e+04 7.110357e+04 7.302745e+04 7.302745e+04 7.363278e+04 7.363278e+04 7.234962e+04 7.234962e+04 7.281518e+04 8.920218e+04 8.920218e+04 8.901885e+04 8.901885e+04 8.900657e+04 8.900657e+04 9.944854e+04 9.880920e+04 9.944854e+04 9.944854e+04 8.338706e+04 8.174260e+04 8.174260e+04 7.310642e+04 7.310642e+04 7.310642e+04 7.165896e+04 7.165896e+04 7.165896e+04 8.693685e+04 7.902367e+04 7.902367e+04 7.842000e+04 7.842000e+04 7.836213e+04 8.060705e+04 7.625884e+04 6.483712e+04 6.551704e+04 6.551704e+04 7.067995e+04 7.067995e+04 7.027078e+04 7.371378e+04 7.434730e+04 7.434730e+04 6.475803e+04 6.475803e+04 6.475803e+04 6.441885e+04 6.458389e+04 8.677650e+04 8.705974e+04 8.705974e+04 7.211798e+04 7.265336e+04 7.265336e+04 8.911273e+04 7.934549e+04 7.934549e+04 7.286974e+04 8.460939e+04 8.460939e+04 8.460939e+04 6.637796e+04 7.157280e+04 7.157280e+04 7.109273e+04 8.138228e+04 8.138228e+04 8.138228e+04 8.207243e+04 8.207243e+04 8.181491e+04 8.372435e+04 8.372435e+04 7.333840e+04 8.508150e+04 8.549106e+04 6.467175e+04 6.467175e+04 6.499447e+04 6.526919e+04 6.521361e+04 6.521361e+04 6.549740e+04 6.566916e+04 6.625302e+04 6.625302e+04 6.730597e+04 8.625017e+04 8.667074e+04 6.521655e+04 7.604803e+04 6.433429e+04 8.359762e+04 8.359762e+04 6.821450e+04 6.812794e+04 6.472573e+04 6.964578e+04 6.964578e+04 6.964578e+04 7.018616e+04 7.018616e+04 8.763018e+04 8.763018e+04 7.405500e+04 8.307391e+04 8.276472e+04 6.526172e+04 6.674092e+04 6.674092e+04 8.821660e+04 7.910886e+04 7.260728e+04 6.935689e+04 8.721583e+04 7.304962e+04 7.355302e+04 7.244002e+04 7.279759e+04 7.279759e+04 7.752601e+04 6.448069e+04 6.995098e+04 7.051310e+04 6.559553e+04 8.656227e+04 8.656227e+04 8.618928e+04 7.296608e+04 7.382052e+04 7.382052e+04 6.659925e+04 8.409023e+04 8.409023e+04 8.409023e+04 8.377950e+04 6.546368e+04 6.530176e+04 8.150637e+04 8.150637e+04 8.150637e+04 8.059486e+04 6.762272e+04 6.962072e+04 6.797513e+04 6.797513e+04 7.624647e+04 7.620995e+04 7.460033e+04 7.498661e+04 6.824313e+04 8.461445e+04 6.861548e+04 6.894851e+04 6.894851e+04 6.936670e+04 6.936670e+04 6.742125e+04 6.742125e+04 7.788160e+04 7.788160e+04 6.778194e+04 7.196921e+04 8.593408e+04 8.593408e+04 8.100344e+04 8.100344e+04 8.238209e+04 6.917668e+04 8.302557e+04 8.232857e+04 7.221780e+04 7.257032e+04 6.529094e+04 6.529094e+04 6.579101e+04 6.646213e+04 8.742710e+04 6.630869e+04 6.630869e+04 7.294224e+04 7.347194e+04 6.572205e+04 6.593048e+04 6.606816e+04 7.419672e+04 6.644261e+04 8.392434e+04 8.392434e+04 7.448946e+04 8.833287e+04 6.740651e+04 7.082459e+04 8.634069e+04 7.802442e+04 7.802442e+04 7.802442e+04 7.841757e+04 7.841757e+04 7.595771e+04 7.566738e+04 7.934629e+04 7.853337e+04 7.015712e+04 6.610840e+04 8.196212e+04 7.227738e+04 6.587693e+04 7.659981e+04 6.939301e+04 6.741256e+04 6.741256e+04 6.741256e+04 7.486408e+04 7.499828e+04 8.169040e+04 8.221376e+04 6.689864e+04 6.689864e+04 6.987397e+04 6.964422e+04 6.964422e+04 6.924127e+04 6.924127e+04 8.070277e+04 6.855721e+04 6.873413e+04 6.873413e+04 7.807954e+04 7.807954e+04 8.236580e+04 7.924202e+04 7.924202e+04 7.900446e+04 6.843034e+04 6.843034e+04 6.849126e+04 6.849126e+04 6.849126e+04 6.791100e+04 8.139711e+04 8.838637e+04 7.312791e+04 7.312791e+04 7.336658e+04 8.926728e+04 7.981101e+04 8.098032e+04 7.107706e+04 6.665633e+04 8.346991e+04 8.392164e+04 7.495093e+04 7.495093e+04 8.324452e+04 8.324452e+04 7.584277e+04 6.941942e+04 7.065656e+04 7.065656e+04 7.939594e+04 8.046317e+04 8.926728e+04 7.924555e+04 7.784487e+04 7.784487e+04 8.436333e+04 7.039650e+04 7.039650e+04 6.853774e+04 7.003119e+04 7.003119e+04 8.885964e+04 8.885964e+04 8.815608e+04 7.868911e+04 7.868911e+04 7.868911e+04 7.783763e+04 6.908201e+04 8.696939e+04 9.021557e+04 8.008996e+04 8.008996e+04 7.485216e+04 7.485216e+04 7.395322e+04 8.948018e+04 7.300386e+04 7.203203e+04 7.203203e+04 7.915361e+04 7.015939e+04 7.015939e+04 7.124429e+04 7.298482e+04 8.094471e+04 7.482736e+04 7.482736e+04 7.482736e+04 8.688187e+04 8.568296e+04 7.626006e+04 7.752385e+04 7.752385e+04 7.710415e+04 7.710415e+04 7.710415e+04 7.584715e+04 7.173836e+04 8.021174e+04 8.021174e+04 8.137647e+04 7.267469e+04 7.620255e+04 7.620255e+04 7.620255e+04 7.602940e+04 7.850262e+04 7.890574e+04 9.215046e+04 9.045852e+04 8.959803e+04 8.530674e+04 8.021774e+04 8.170010e+04 8.297632e+04 8.297632e+04 7.526082e+04 7.526082e+04 7.367499e+04 7.401420e+04 8.357054e+04 8.357054e+04 8.357054e+04 7.539000e+04 9.111719e+04 7.725740e+04 9.195539e+04 9.221742e+04 8.197992e+04 8.284228e+04 7.590563e+04 7.429575e+04 7.598030e+04 7.735274e+04 7.735274e+04 8.615421e+04 8.615421e+04 8.615421e+04 9.433603e+04 8.179328e+04 8.270709e+04 8.295161e+04 8.646662e+04 8.373234e+04 8.464676e+04 9.209579e+04 8.938986e+04 8.051749e+04 8.051749e+04 8.051749e+04 7.847872e+04 7.790864e+04 8.667133e+04 8.667133e+04 8.258340e+04 8.258340e+04 8.903913e+04 9.000456e+04 8.462887e+04 9.087313e+04 8.512696e+04 9.554522e+04 8.968333e+04 8.968333e+04 9.248580e+04 9.488610e+04 9.488610e+04 9.126191e+04 9.126191e+04 9.296145e+04 9.296145e+04 8.935964e+04 9.438854e+04 9.438854e+04 9.089776e+04 9.620410e+04 9.794804e+04 9.874761e+04 9.260361e+04 9.260361e+04 9.260361e+04 7.372265e+04 7.372265e+04 7.372265e+04 7.364264e+04 7.364264e+04 9.131472e+04 9.131472e+04 9.131472e+04 9.184294e+04 7.307070e+04 7.307070e+04 7.350564e+04 7.350564e+04 6.729067e+04 6.729067e+04 6.729067e+04 9.062321e+04 9.062321e+04 9.062321e+04 9.053607e+04 8.334302e+04 8.334302e+04 8.334302e+04 8.404806e+04 8.545025e+04 8.545025e+04 8.104485e+04 8.104485e+04 8.104485e+04 7.916503e+04 7.916503e+04 7.916503e+04 7.593973e+04 7.593973e+04 7.593973e+04 7.523272e+04 7.523272e+04 7.523272e+04 7.489283e+04 8.817702e+04 8.817702e+04 8.817702e+04 8.582255e+04 8.582255e+04 8.582255e+04 8.918837e+04 8.918837e+04 8.918837e+04 8.738858e+04 8.738858e+04 8.738858e+04 8.670015e+04 8.670015e+04 9.288791e+04 9.288791e+04 9.157328e+04 9.020489e+04 9.500986e+04 9.500986e+04 9.500986e+04 8.775031e+04 8.775031e+04 7.990934e+04 7.990934e+04 7.990934e+04 8.281427e+04 8.281427e+04 8.281427e+04 7.942159e+04 7.942159e+04 7.942159e+04 7.893491e+04 7.796236e+04 7.796236e+04 7.796236e+04 7.814753e+04 7.744068e+04 7.744068e+04 7.744068e+04 7.996081e+04 7.996081e+04 7.996081e+04 7.988084e+04 7.959579e+04 8.261824e+04 8.261824e+04 8.261824e+04 7.750048e+04 7.750048e+04 7.893989e+04 7.893989e+04 7.932647e+04 8.041572e+04 8.041572e+04 8.421234e+04 8.421234e+04 8.421234e+04 8.542170e+04 8.542170e+04 8.520040e+04 8.520040e+04 8.520040e+04 7.921930e+04 8.742075e+04 8.742075e+04 8.742075e+04 9.117373e+04 9.066696e+04 9.794757e+04 9.794757e+04 9.371844e+04 9.371844e+04 8.496627e+04 8.496627e+04 8.496627e+04 8.542502e+04 8.586831e+04 7.419036e+04 7.419036e+04 7.968819e+04 7.300486e+04 7.729887e+04 7.729887e+04 7.729887e+04 8.123477e+04 7.554347e+04 7.554347e+04 7.980170e+04 8.230061e+04 8.230061e+04 8.236198e+04 8.714230e+04 8.714230e+04 8.319530e+04 8.319530e+04 8.319530e+04 7.075680e+04 7.075680e+04 7.075680e+04 7.475287e+04 7.434722e+04 8.703546e+04 7.234475e+04 7.234475e+04 7.234475e+04 7.158066e+04 7.695300e+04 7.695300e+04 8.426315e+04 8.426315e+04 8.081694e+04 7.564070e+04 7.564070e+04 7.623955e+04 7.623955e+04 8.128290e+04 8.128290e+04 8.128290e+04 8.941166e+04 8.941166e+04 9.125182e+04 9.125182e+04 7.845442e+04 8.217595e+04 8.217595e+04 8.217595e+04 8.060276e+04 8.060276e+04 8.561061e+04 8.561061e+04 7.374030e+04 7.374030e+04 9.041460e+04 9.041460e+04 8.175311e+04 8.384832e+04 8.384832e+04 8.387491e+04 8.387491e+04 7.597074e+04 7.597074e+04 7.597074e+04 8.330249e+04 8.330249e+04 8.330249e+04 7.525666e+04 7.899526e+04 8.050096e+04 8.112027e+04 8.112027e+04 8.148786e+04 7.662182e+04 8.455500e+04 8.455500e+04 8.609375e+04 8.609375e+04 8.609375e+04 7.468641e+04 7.477106e+04 7.477106e+04 8.630667e+04 8.630667e+04 8.656126e+04 8.383540e+04 8.370311e+04 8.370311e+04 8.969969e+04 8.969969e+04 8.969969e+04 8.701956e+04 8.701956e+04 9.095267e+04 8.525145e+04 8.134722e+04 8.134722e+04 9.325913e+04 8.032958e+04 8.032958e+04 8.199681e+04 8.282745e+04 8.282745e+04 8.278719e+04 8.845272e+04 8.845272e+04 7.959093e+04 7.959093e+04 8.712806e+04 8.276349e+04 8.276349e+04 8.415249e+04 8.415249e+04 8.448533e+04 8.672381e+04 8.157131e+04 8.157131e+04 8.468887e+04 8.398793e+04 7.628817e+04 7.628817e+04 8.097552e+04 8.237884e+04 8.944005e+04 8.944005e+04 8.944005e+04 8.850781e+04 8.850781e+04 8.850781e+04 8.510637e+04 8.510637e+04 9.140619e+04 9.140619e+04 9.140619e+04 8.319059e+04 8.949136e+04 8.842805e+04 8.865448e+04 9.029934e+04 9.029934e+04 9.029934e+04 8.465240e+04 8.768445e+04 8.768445e+04 8.667328e+04 8.667328e+04 8.667328e+04 9.331689e+04 8.394198e+04 8.710422e+04 8.710422e+04 8.823130e+04 8.823130e+04 8.823130e+04 8.795404e+04 8.965693e+04 8.065504e+04 8.065504e+04 8.065504e+04 8.175153e+04 8.175153e+04 8.244908e+04 9.337949e+04 8.890204e+04 8.595499e+04 8.894367e+04 8.894367e+04 8.889244e+04 8.891286e+04 8.891286e+04 9.216983e+04 9.216983e+04 9.216983e+04 8.763309e+04 8.754942e+04 8.356837e+04 8.980407e+04 9.023662e+04 8.928445e+04 8.406293e+04 9.338189e+04 9.338189e+04 9.348184e+04 9.170438e+04 9.170438e+04 8.844217e+04 9.289928e+04 9.289928e+04 9.289928e+04 9.155500e+04 9.155500e+04 8.600652e+04 8.600652e+04 8.646461e+04 9.058509e+04 9.058509e+04 9.194885e+04 8.758505e+04 8.858711e+04 9.242223e+04 9.366064e+04 9.164072e+04 8.929935e+04 9.366064e+04 9.554595e+04 6.868665e+04 6.868665e+04 7.708187e+04 7.708187e+04 7.028663e+04 7.028663e+04 7.616568e+04 7.457653e+04 7.014309e+04 6.925563e+04 6.663354e+04 9.482067e+04 9.482067e+04 8.955499e+04 7.987676e+04 7.925933e+04 9.208093e+04 9.208093e+04 6.837177e+04 6.886301e+04 6.791854e+04 6.868668e+04 6.868668e+04 6.868668e+04 7.079750e+04 7.079750e+04 7.079750e+04 6.786917e+04 7.137237e+04 7.137237e+04 7.166497e+04 7.166497e+04 6.924767e+04 7.023390e+04 6.987141e+04 8.692235e+04 9.467463e+04 9.637705e+04 9.793777e+04 9.119458e+04 9.119458e+04 8.490796e+04 7.271171e+04 6.970188e+04 7.162900e+04 7.219200e+04 7.219200e+04 7.511071e+04 7.842086e+04 8.198039e+04 8.449751e+04 8.449751e+04 8.687642e+04 9.161033e+04 9.028878e+04 9.306603e+04 9.306603e+04 9.306603e+04 8.631577e+04 8.885741e+04 8.804538e+04 8.804538e+04 7.732863e+04 8.636456e+04 8.636456e+04 8.181257e+04 7.791580e+04 8.346040e+04 8.346040e+04 9.273229e+04 9.273229e+04 9.273229e+04 9.241624e+04 9.241624e+04 9.314519e+04 8.271906e+04 8.374414e+04 8.499577e+04 8.765241e+04 9.143026e+04 7.648370e+04 8.023367e+04 8.043380e+04 8.751617e+04 8.284921e+04 8.905894e+04 8.577419e+04 8.863826e+04 8.863826e+04 9.072012e+04 8.752028e+04 8.850548e+04 9.058708e+04 8.778225e+04 9.283014e+04 9.183260e+04 9.183260e+04 9.209697e+04 9.029511e+04 9.153169e+04 8.786385e+04 8.786385e+04 8.682600e+04 8.667090e+04 8.966953e+04 8.933256e+04 9.118315e+04 8.985898e+04 9.207937e+04 8.756042e+04 9.179122e+04 9.179122e+04 9.179122e+04 9.189783e+04 9.137531e+04 9.137531e+04 8.992932e+04 8.992932e+04 9.096558e+04 9.080384e+04 9.080384e+04 9.271582e+04 9.013712e+04 9.101349e+04 9.050291e+04 9.281181e+04 9.229948e+04 9.325913e+04 9.325913e+04 9.303895e+04 8.708919e+04 9.207604e+04 9.207604e+04 9.233329e+04 9.233329e+04 9.087513e+04 9.281621e+04 9.264908e+04 9.234016e+04 9.234016e+04 6.405820e+04 6.405820e+04 6.398329e+04 6.392620e+04 6.390410e+04 6.389276e+04 6.383056e+04 6.379666e+04 7.145911e+04 7.145911e+04 7.145911e+04 7.086082e+04 6.916446e+04 6.916446e+04 6.916446e+04 6.903763e+04 6.429569e+04 6.429569e+04 6.448120e+04 6.448120e+04 6.441032e+04 6.442453e+04 6.442453e+04 6.442453e+04 6.403743e+04 6.732654e+04 6.732654e+04 6.732654e+04 6.747012e+04 6.789087e+04 6.841339e+04 6.439324e+04 6.439324e+04 6.490462e+04 6.434309e+04 6.434309e+04 6.434309e+04 6.601068e+04 6.601068e+04 6.601068e+04 6.529801e+04 6.529801e+04 6.557637e+04 6.664073e+04 6.450742e+04 6.465677e+04 6.465677e+04 6.468845e+04 6.522847e+04 6.668442e+04 6.668442e+04 6.668442e+04 6.733596e+04 6.733596e+04 6.557637e+04 6.530916e+04 6.562827e+04 6.488041e+04 6.579321e+04 6.579321e+04 6.620318e+04 6.611632e+04 6.665324e+04 6.751325e+04 6.845371e+04 7.062818e+04 7.062818e+04 7.212703e+04 7.338691e+04 7.508555e+04 7.508555e+04 7.508555e+04 7.651655e+04 7.651655e+04 7.999355e+04 8.249818e+04 8.249818e+04 9.124550e+04 8.412160e+04 8.412160e+04 8.412160e+04 8.421627e+04 8.421627e+04 8.178255e+04 8.178255e+04 8.178255e+04 7.266973e+04 7.266973e+04 8.455054e+04 9.265785e+04 9.265785e+04 9.265785e+04 7.958948e+04 7.958948e+04 7.958948e+04 8.011438e+04 8.032329e+04 8.945234e+04 8.945234e+04 8.945234e+04 7.798039e+04 7.798039e+04 7.798039e+04 7.258662e+04 7.258662e+04 7.258662e+04 7.265455e+04 7.265455e+04 7.543780e+04 7.543780e+04 7.543780e+04 8.176838e+04 8.176838e+04 7.450736e+04 7.450736e+04 7.450736e+04 7.465870e+04 7.465870e+04 7.679011e+04 7.679011e+04 7.679011e+04 8.889066e+04 8.889066e+04 8.889066e+04 7.783001e+04 7.783001e+04 7.783001e+04 7.687410e+04 7.687410e+04 8.844028e+04 8.844028e+04 8.844028e+04 8.918373e+04 8.918373e+04 9.657788e+04 9.162588e+04 9.162588e+04 9.162588e+04 9.215011e+04 8.677037e+04 8.677037e+04 8.677037e+04 8.747666e+04 9.073871e+04 9.073871e+04 9.073871e+04 8.101594e+04 7.989733e+04 8.254901e+04 8.254901e+04 8.254901e+04 8.214936e+04 9.155310e+04 9.155310e+04 9.155310e+04 7.546072e+04 7.546072e+04 7.546072e+04 7.618880e+04 7.618880e+04 7.818467e+04 7.818467e+04 7.818467e+04 7.793091e+04 7.671100e+04 7.671100e+04 7.778962e+04 7.778962e+04 7.510512e+04 7.561527e+04 7.581483e+04 8.153359e+04 6.709686e+04 7.515818e+04 7.338691e+04 7.326321e+04 7.326321e+04 8.986628e+04 8.986628e+04 8.986628e+04 8.325412e+04 8.325412e+04 9.365981e+04 9.365981e+04 9.365981e+04 7.205536e+04 7.205536e+04 7.205536e+04 8.542771e+04 8.542771e+04 7.927803e+04 7.927803e+04 8.272095e+04 8.272095e+04 8.272095e+04 7.988224e+04 7.988224e+04 7.988224e+04 7.858094e+04 7.858094e+04 7.858094e+04 7.173085e+04 8.833896e+04 8.833896e+04 8.082212e+04 8.082212e+04 8.227041e+04 8.227041e+04 7.644898e+04 7.644898e+04 7.601126e+04 7.373588e+04 7.373588e+04 7.373588e+04 7.392896e+04 6.755280e+04 6.823102e+04 7.517713e+04 8.586146e+04 8.586146e+04 8.586146e+04 7.749174e+04 7.749174e+04 7.163194e+04 7.163194e+04 7.097239e+04 7.097239e+04 7.098515e+04 7.098515e+04 7.941278e+04 7.941278e+04 7.871367e+04 7.402626e+04 7.402626e+04 8.465414e+04 8.465414e+04 8.465414e+04 7.795342e+04 7.872303e+04 7.545830e+04 8.350046e+04 8.350046e+04 8.350046e+04 8.304251e+04 8.304251e+04 8.304251e+04 8.105800e+04 8.559557e+04 8.559557e+04 8.559557e+04 8.650205e+04 8.650205e+04 8.650205e+04 8.022164e+04 8.022164e+04 7.227310e+04 7.307519e+04 8.259641e+04 8.259641e+04 8.182140e+04 8.182140e+04 8.153129e+04 8.197285e+04 7.681369e+04 8.049746e+04 8.010263e+04 8.010263e+04 7.957284e+04 8.346321e+04 8.624008e+04 8.624008e+04 7.620395e+04 7.573329e+04 8.386255e+04 8.386255e+04 8.578011e+04 8.152301e+04 8.152301e+04 8.088945e+04 8.502195e+04 8.502195e+04 8.502195e+04 8.198537e+04 8.234469e+04 8.460604e+04 8.460604e+04 8.460604e+04 8.684712e+04 8.684712e+04 7.449050e+04 8.056498e+04 7.867531e+04 7.867531e+04 7.903286e+04 8.836840e+04 8.065280e+04 8.065280e+04 8.065280e+04 8.090530e+04 8.149647e+04 8.926732e+04 8.926732e+04 8.926732e+04 8.879365e+04 8.713947e+04 8.713947e+04 8.715687e+04 8.715687e+04 8.329599e+04 7.958732e+04 8.055844e+04 8.000752e+04 8.393754e+04 8.393754e+04 8.393754e+04 8.420242e+04 8.420242e+04 8.833729e+04 8.833729e+04 8.833729e+04 8.144541e+04 8.717404e+04 8.754292e+04 8.754292e+04 8.470345e+04 8.470345e+04 8.313193e+04 8.244427e+04 8.603832e+04 8.603832e+04 8.603832e+04 8.917701e+04 8.917701e+04 9.081535e+04 9.081535e+04 9.081535e+04 8.632881e+04 8.632881e+04 8.569362e+04 8.759733e+04 8.759733e+04 9.233211e+04 9.233211e+04 9.178278e+04 9.178278e+04 8.556537e+04 8.461697e+04 8.461697e+04 9.146851e+04 9.146851e+04 8.302227e+04 8.811923e+04 8.774308e+04 8.774308e+04 8.590277e+04 8.886216e+04 8.886216e+04 8.669197e+04 8.669197e+04 8.669197e+04 8.727906e+04 9.108969e+04 9.108969e+04 9.108969e+04 8.993488e+04 9.074670e+04 8.175118e+04 8.175118e+04 8.175118e+04 8.467085e+04 8.803351e+04 8.946573e+04 8.828864e+04 8.742607e+04 8.591062e+04 8.342907e+04 8.999640e+04 8.999640e+04 9.101613e+04 9.347277e+04 9.347277e+04 9.347277e+04 8.964473e+04 8.970358e+04 8.512729e+04 9.012453e+04 9.053703e+04 9.052478e+04 8.550971e+04 9.123618e+04 9.123618e+04 8.997794e+04 8.659873e+04 9.399518e+04 9.394018e+04 8.763723e+04 8.763723e+04 8.864438e+04 9.209423e+04 9.399518e+04 9.254165e+04 9.254165e+04 9.254165e+04 9.271735e+04 8.808723e+04 9.048147e+04 9.430506e+04 9.332938e+04 9.332938e+04 9.332938e+04 9.276243e+04 9.276243e+04 9.430506e+04 9.124298e+04 9.124298e+04 9.400230e+04 9.013851e+04 9.013851e+04 9.004989e+04 9.126172e+04 9.456122e+04 9.456122e+04 9.456122e+04 9.217868e+04 9.273634e+04 9.273634e+04 9.407389e+04 9.124550e+04 9.124550e+04 9.482910e+04 9.423407e+04 9.439095e+04 9.350664e+04 9.350664e+04 9.319568e+04 9.519449e+04 9.515489e+04 9.515489e+04 9.570557e+04 9.482910e+04 9.482910e+04 9.545676e+04 8.153592e+04 7.450412e+04 7.012517e+04 6.807161e+04 6.807161e+04 7.963421e+04 7.683083e+04 7.683083e+04 7.395251e+04 7.366616e+04 7.095686e+04 7.095686e+04 6.958492e+04 7.319122e+04 6.785001e+04 6.899331e+04 7.065968e+04 8.416884e+04 8.929116e+04 9.240291e+04 7.863140e+04 6.942332e+04 6.965919e+04 7.257992e+04 8.706091e+04 8.708988e+04 9.128817e+04 9.196477e+04 7.868972e+04 9.174957e+04 7.788565e+04 9.205031e+04 9.305122e+04 9.305122e+04 9.305122e+04 9.032392e+04 8.326672e+04 8.326672e+04 8.369333e+04 7.826280e+04 7.727234e+04 7.979476e+04 8.515928e+04 8.024208e+04 8.357389e+04 8.679318e+04 8.743312e+04 8.743312e+04 8.872361e+04 9.000821e+04 8.389118e+04 8.666032e+04 8.666032e+04 8.419471e+04 8.612336e+04 9.046177e+04 8.692808e+04 9.012906e+04 9.073102e+04 8.758854e+04 8.992817e+04 8.960996e+04 8.960996e+04 8.793088e+04 8.905690e+04 8.879101e+04 9.208847e+04 9.240655e+04 9.240655e+04 9.096651e+04 8.721579e+04 9.148995e+04 9.148995e+04 8.961721e+04 9.262385e+04 9.262385e+04 9.203049e+04 9.203049e+04 9.064657e+04 9.128970e+04 9.000906e+04 8.981358e+04 9.313280e+04 9.313280e+04 9.313280e+04 8.792490e+04 9.112482e+04 9.167380e+04 9.303318e+04 9.033684e+04 8.791124e+04 8.848309e+04 9.196335e+04 8.911002e+04 9.130291e+04 9.130291e+04 9.115824e+04 9.268847e+04 9.268847e+04 9.063830e+04 9.063830e+04 9.038005e+04 8.517778e+04 9.157153e+04 9.220766e+04 9.248050e+04 9.361024e+04 9.322731e+04 9.223067e+04 9.140250e+04 9.183831e+04 9.290788e+04 8.917733e+04 8.858593e+04 8.800761e+04 8.752742e+04 8.677650e+04 8.625017e+04 8.565951e+04 8.508150e+04 8.442627e+04 8.392855e+04 8.340238e+04 8.282814e+04 8.236388e+04 8.178446e+04 8.130412e+04 8.083546e+04 8.023585e+04 7.974446e+04 7.926968e+04 7.876220e+04 7.822660e+04 7.775504e+04 7.728520e+04 7.677888e+04 7.632562e+04 7.588396e+04 7.542028e+04 7.499002e+04 7.451642e+04 7.413179e+04 7.371378e+04 7.331290e+04 7.289641e+04 7.248050e+04 7.211798e+04 7.171117e+04 7.133549e+04 7.095421e+04 7.063202e+04 7.023877e+04 6.993373e+04 6.960022e+04 6.919367e+04 6.894862e+04 6.860721e+04 6.827775e+04 6.800183e+04 6.767924e+04 6.744368e+04 6.719765e+04 6.694029e+04 6.670012e+04 6.645091e+04 6.622560e+04 6.603649e+04 6.586006e+04 6.566916e+04 6.546142e+04 6.527770e+04 6.512417e+04 6.497502e+04 6.483712e+04 6.467011e+04 6.459609e+04 6.448526e+04 6.435282e+04 6.425747e+04 6.414912e+04 6.405760e+04 6.399213e+04 6.394644e+04 6.388377e+04 6.380919e+04 6.380575e+04 6.375186e+04 6.377565e+04 6.377445e+04 6.451395e+04 6.522847e+04 6.629716e+04 6.706899e+04 6.706899e+04 6.807161e+04 6.902179e+04 6.958492e+04 7.012517e+04 7.012517e+04 7.095686e+04 7.165916e+04 7.217030e+04 7.266973e+04 7.287021e+04 7.388816e+04 7.410945e+04 7.450412e+04 7.510512e+04 7.553888e+04 7.589236e+04 7.648567e+04 7.685798e+04 7.727234e+04 7.789420e+04 7.789420e+04 7.839538e+04 7.909751e+04 7.927803e+04 7.963421e+04 7.988600e+04 8.024208e+04 8.082212e+04 8.136627e+04 8.153592e+04 8.183907e+04 8.227041e+04 8.247029e+04 8.309225e+04 8.326672e+04 8.357389e+04 8.389118e+04 8.405286e+04 8.465863e+04 8.476025e+04 8.515928e+04 8.542771e+04 8.566121e+04 8.612336e+04 8.622753e+04 8.679318e+04 8.679318e+04 8.706007e+04 8.743312e+04 8.793088e+04 8.793088e+04 8.833896e+04 8.872361e+04 8.872361e+04 8.905690e+04 8.938947e+04 8.960996e+04 9.000821e+04 9.000821e+04 9.046177e+04 9.046177e+04 9.073102e+04 9.096651e+04 9.128970e+04 9.148995e+04 9.167380e+04 9.208847e+04 9.208847e+04 9.240655e+04 9.262051e+04 9.282617e+04 9.314448e+04 9.314448e+04 9.087692e+04 9.087692e+04 9.087692e+04 9.121571e+04 9.742383e+04 9.742383e+04 9.742383e+04 9.386084e+04 9.386084e+04 9.386084e+04 9.486861e+04 8.744096e+04 8.744096e+04 8.744096e+04 8.661036e+04 8.257695e+04 8.257695e+04 8.257695e+04 8.165836e+04 7.089018e+04 7.089018e+04 7.089018e+04 7.112024e+04 7.175626e+04 7.374370e+04 7.374370e+04 7.374370e+04 7.419068e+04 9.096974e+04 9.096974e+04 9.096974e+04 8.404564e+04 8.404564e+04 8.404564e+04 8.445141e+04 8.426108e+04 6.853231e+04 6.853231e+04 6.853231e+04 6.797889e+04 8.823301e+04 8.823301e+04 8.823301e+04 8.901391e+04 8.901391e+04 7.560288e+04 7.560288e+04 7.560288e+04 7.545379e+04 7.546332e+04 6.858713e+04 6.858713e+04 6.858713e+04 6.845347e+04 6.852629e+04 7.719519e+04 7.719519e+04 7.719519e+04 7.714858e+04 6.576229e+04 6.576229e+04 6.576229e+04 8.836869e+04 8.836869e+04 7.737170e+04 7.737170e+04 7.210854e+04 7.210854e+04 7.210854e+04 7.170214e+04 6.701715e+04 6.701715e+04 6.701715e+04 6.654981e+04 6.473197e+04 6.473197e+04 6.528743e+04 6.528743e+04 7.149933e+04 7.149933e+04 7.149933e+04 7.131394e+04 7.131394e+04 6.653189e+04 6.653189e+04 6.653189e+04 6.707529e+04 6.707529e+04 8.911273e+04 7.129016e+04 7.129016e+04 7.129016e+04 7.178497e+04 8.521106e+04 8.521106e+04 8.521106e+04 8.496546e+04 8.496546e+04 8.059095e+04 8.059095e+04 8.059095e+04 8.168314e+04 8.168314e+04 7.707157e+04 7.707157e+04 7.707157e+04 7.695847e+04 7.695847e+04 7.484036e+04 7.484036e+04 7.484036e+04 7.594586e+04 7.594586e+04 8.943597e+04 8.943597e+04 8.943597e+04 8.958891e+04 8.891151e+04 8.891151e+04 8.891151e+04 8.816173e+04 7.993035e+04 7.993035e+04 7.993035e+04 7.902382e+04 7.902382e+04 9.426884e+04 9.426884e+04 9.426884e+04 8.818552e+04 8.818552e+04 8.818552e+04 8.857078e+04 8.857078e+04 9.286210e+04 9.286210e+04 9.286210e+04 9.439502e+04 9.439502e+04 8.633814e+04 8.633814e+04 8.633814e+04 8.743744e+04 7.989670e+04 7.989670e+04 7.313160e+04 7.313160e+04 7.313160e+04 8.549538e+04 8.549538e+04 8.675965e+04 8.675965e+04 8.741509e+04 8.741509e+04 8.741509e+04 8.739523e+04 6.711266e+04 6.711266e+04 6.711266e+04 6.755436e+04 8.752141e+04 8.752141e+04 6.759622e+04 6.759622e+04 6.759622e+04 7.996735e+04 7.996735e+04 7.996735e+04 7.973521e+04 7.973521e+04 6.527754e+04 6.527754e+04 6.527754e+04 6.588062e+04 6.588062e+04 6.437036e+04 6.437036e+04 6.420268e+04 6.440698e+04 6.440698e+04 6.440698e+04 8.007998e+04 8.007998e+04 7.451642e+04 6.727260e+04 6.727260e+04 6.727260e+04 6.532197e+04 7.716794e+04 7.669007e+04 6.935748e+04 6.935748e+04 6.935748e+04 6.599756e+04 6.599756e+04 6.599756e+04 6.450468e+04 6.450468e+04 6.450468e+04 6.825882e+04 6.825882e+04 6.825882e+04 6.911904e+04 6.911904e+04 7.216747e+04 7.216747e+04 7.216747e+04 7.110357e+04 7.110357e+04 7.302745e+04 7.302745e+04 7.363278e+04 7.363278e+04 7.234962e+04 7.234962e+04 7.281518e+04 8.920218e+04 8.920218e+04 8.901885e+04 8.901885e+04 8.900657e+04 8.900657e+04 9.944854e+04 9.880920e+04 9.944854e+04 9.944854e+04 8.338706e+04 8.174260e+04 8.174260e+04 7.310642e+04 7.310642e+04 7.310642e+04 7.165896e+04 7.165896e+04 7.165896e+04 8.693685e+04 7.902367e+04 7.902367e+04 7.842000e+04 7.842000e+04 7.836213e+04 8.060705e+04 7.625884e+04 6.483712e+04 6.551704e+04 6.551704e+04 7.067995e+04 7.067995e+04 7.027078e+04 7.371378e+04 7.434730e+04 7.434730e+04 6.475803e+04 6.475803e+04 6.475803e+04 6.441885e+04 6.458389e+04 8.677650e+04 8.705974e+04 8.705974e+04 7.211798e+04 7.265336e+04 7.265336e+04 8.911273e+04 7.934549e+04 7.934549e+04 7.286974e+04 8.460939e+04 8.460939e+04 8.460939e+04 6.637796e+04 7.157280e+04 7.157280e+04 7.109273e+04 8.138228e+04 8.138228e+04 8.138228e+04 8.207243e+04 8.207243e+04 8.181491e+04 8.372435e+04 8.372435e+04 7.333840e+04 8.508150e+04 8.549106e+04 6.467175e+04 6.467175e+04 6.499447e+04 6.526919e+04 6.521361e+04 6.521361e+04 6.549740e+04 6.566916e+04 6.625302e+04 6.625302e+04 6.730597e+04 8.625017e+04 8.667074e+04 6.521655e+04 7.604803e+04 6.433429e+04 8.359762e+04 8.359762e+04 6.821450e+04 6.812794e+04 6.472573e+04 6.964578e+04 6.964578e+04 6.964578e+04 7.018616e+04 7.018616e+04 8.763018e+04 8.763018e+04 7.405500e+04 8.307391e+04 8.276472e+04 6.526172e+04 6.674092e+04 6.674092e+04 8.821660e+04 7.910886e+04 7.260728e+04 6.935689e+04 8.721583e+04 7.304962e+04 7.355302e+04 7.244002e+04 7.279759e+04 7.279759e+04 7.752601e+04 6.448069e+04 6.995098e+04 7.051310e+04 6.559553e+04 8.656227e+04 8.656227e+04 8.618928e+04 7.296608e+04 7.382052e+04 7.382052e+04 6.659925e+04 8.409023e+04 8.409023e+04 8.409023e+04 8.377950e+04 6.546368e+04 6.530176e+04 