<?xml version="1.0"?>
 <VTKFile type="UnstructuredGrid" version="1.0" byte_order="LittleEndian" header_type="UInt64">
  <UnstructuredGrid>
    <FieldData>
     <DataArray type="Float64" Name="TimeValue" NumberOfTuples="1" format="ascii">
0.00023
     </DataArray>
    </FieldData>
   <Piece NumberOfPoints="3662" NumberOfCells="3444">
    <PointData>
     <DataArray type="Float64" Name="pointP" format="ascii">
7.689954e+05 7.709129e+05 7.737152e+05 7.706605e+05 7.685059e+05 7.727463e+05 7.695907e+05 7.675130e+05 7.671746e+05 7.678538e+05 7.633142e+05 7.589139e+05 7.522521e+05 7.478896e+05 7.460961e+05 7.395574e+05 7.357057e+05 7.320539e+05 7.284931e+05 7.242136e+05 7.214011e+05 7.175572e+05 7.135936e+05 7.116677e+05 7.064409e+05 7.071135e+05 6.948969e+05 6.943627e+05 6.853693e+05 6.845375e+05 6.843277e+05 6.791246e+05 6.786486e+05 6.711683e+05 6.658935e+05 6.566947e+05 6.543011e+05 6.425407e+05 6.297860e+05 6.259540e+05 6.231533e+05 6.164842e+05 6.097847e+05 6.010331e+05 5.992976e+05 5.945924e+05 5.828109e+05 5.720788e+05 5.699915e+05 5.618895e+05 5.563259e+05 5.496001e+05 5.376885e+05 5.273183e+05 5.189618e+05 5.104704e+05 5.018243e+05 4.964196e+05 4.880896e+05 4.812850e+05 4.706345e+05 4.641060e+05 4.544613e+05 4.427578e+05 4.315844e+05 4.263393e+05 4.158016e+05 4.089210e+05 3.994173e+05 3.913924e+05 3.808724e+05 3.725385e+05 3.650581e+05 3.589943e+05 3.494204e+05 3.427662e+05 3.330182e+05 3.234881e+05 3.127686e+05 3.029857e+05 2.956744e+05 2.874652e+05 2.773551e+05 2.698379e+05 2.616062e+05 2.537837e+05 2.443689e+05 2.357633e+05 2.280266e+05 2.206616e+05 2.119048e+05 2.025280e+05 1.949775e+05 1.848334e+05 1.774532e+05 1.692249e+05 1.592750e+05 1.517168e+05 1.443675e+05 1.368628e+05 1.292079e+05 1.215110e+05 1.141321e+05 1.055770e+05 9.856649e+04 8.952717e+04 8.236395e+04 7.571913e+04 6.889921e+04 6.321214e+04 5.767434e+04 5.021272e+04 4.394537e+04 3.724474e+04 3.051120e+04 2.569058e+04 1.844343e+04 1.164325e+04 5.126340e+03 -2.938066e+03 -5.279826e+03 -1.016813e+04 -1.704734e+04 -1.704734e+04 1.219524e+05 1.470852e+05 1.592519e+05 1.606751e+05 1.641920e+05 1.689254e+05 1.725506e+05 1.725506e+05 1.731273e+05 1.750329e+05 1.765504e+05 1.765504e+05 1.814373e+05 1.814373e+05 1.869657e+05 1.897956e+05 1.909509e+05 1.950992e+05 1.994444e+05 2.104930e+05 2.104930e+05 2.227639e+05 2.227639e+05 2.296156e+05 2.449374e+05 2.486081e+05 2.585674e+05 2.635092e+05 2.777526e+05 2.878072e+05 2.977857e+05 3.142507e+05 3.190467e+05 3.364399e+05 3.540493e+05 3.681171e+05 3.813489e+05 3.813489e+05 3.947297e+05 4.210221e+05 4.210221e+05 4.493503e+05 4.592181e+05 4.592181e+05 4.790494e+05 4.997018e+05 4.997018e+05 5.199874e+05 5.328366e+05 5.553425e+05 5.553425e+05 5.715239e+05 6.062651e+05 6.309625e+05 6.868827e+05 7.137986e+05 1.201734e+05 2.196857e+05 2.196857e+05 2.196857e+05 2.251351e+05 1.888877e+05 1.888877e+05 1.888877e+05 1.965124e+05 1.965124e+05 2.345419e+05 2.345419e+05 2.345419e+05 2.366988e+05 2.332396e+05 1.063634e+05 2.009093e+05 2.009093e+05 1.950158e+05 2.217750e+05 2.217750e+05 2.217750e+05 2.174235e+05 2.136767e+05 4.028455e+05 4.028455e+05 4.028455e+05 3.938663e+05 1.440561e+05 1.440561e+05 1.440561e+05 1.401071e+05 1.356797e+05 1.356797e+05 2.134710e+05 2.134710e+05 1.888128e+05 1.847728e+05 1.201734e+05 1.201734e+05 1.642419e+05 1.642419e+05 1.642419e+05 1.615680e+05 1.555129e+05 1.555129e+05 1.599279e+05 2.021311e+05 2.021311e+05 2.021311e+05 2.025716e+05 1.953892e+05 2.119511e+05 2.112646e+05 1.604227e+05 1.604227e+05 1.604227e+05 1.517223e+05 8.113145e+04 6.024359e+04 4.083913e+04 6.024359e+04 3.332379e+05 3.332379e+05 3.332379e+05 3.893978e+05 3.893978e+05 3.893978e+05 3.759397e+05 6.724809e+03 -5.526221e+03 6.724809e+03 6.724809e+03 3.181824e+05 3.181824e+05 3.181824e+05 3.185746e+05 4.542084e+05 4.542084e+05 4.542084e+05 4.468583e+05 5.212155e+05 5.212155e+05 5.212155e+05 5.025673e+05 5.025673e+05 4.359330e+04 4.359330e+04 4.359330e+04 3.969019e+04 9.966322e+04 9.966322e+04 9.966322e+04 9.084672e+04 9.084672e+04 5.869108e+05 5.869108e+05 5.869108e+05 5.962427e+05 2.420067e+05 2.420067e+05 2.420067e+05 2.416604e+05 2.416604e+05 -2.183541e+04 -1.806163e+04 5.697169e+05 5.697169e+05 5.697169e+05 5.565118e+05 6.222551e+05 6.222551e+05 6.222551e+05 6.448266e+05 6.448266e+05 3.095167e+05 3.095167e+05 3.095167e+05 3.038026e+05 6.067769e+05 6.067769e+05 6.067769e+05 5.871228e+05 3.724474e+04 4.282103e+05 4.282103e+05 4.282103e+05 3.465746e+05 3.465746e+05 3.465746e+05 3.470212e+05 2.680639e+05 2.680639e+05 2.680639e+05 2.694626e+05 1.517168e+05 1.183869e+05 1.183869e+05 1.183869e+05 1.150834e+05 2.160259e+05 2.160259e+05 2.160259e+05 2.148138e+05 2.148138e+05 -1.806163e+04 -1.806163e+04 -2.183541e+04 5.134585e+05 5.134585e+05 5.134585e+05 5.372438e+05 5.372438e+05 2.398717e+05 2.460564e+05 2.460564e+05 4.370010e+05 4.370010e+05 4.370010e+05 4.554601e+05 4.554601e+05 4.153505e+05 4.153505e+05 4.153505e+05 4.208322e+05 5.238124e+04 3.485648e+04 5.238124e+04 5.238124e+04 8.752590e+04 1.953398e+05 1.953398e+05 1.953398e+05 2.035738e+05 2.147271e+05 2.265165e+05 2.265165e+05 1.411171e+05 1.411171e+05 1.250781e+05 1.250781e+05 2.413822e+05 2.413822e+05 2.413822e+05 2.569402e+05 2.569402e+05 1.301755e+05 1.301755e+05 1.301755e+05 1.294216e+05 1.231301e+05 1.781627e+05 1.617217e+05 3.148040e+05 3.148040e+05 3.148040e+05 3.088765e+05 3.639156e+05 3.639156e+05 3.639156e+05 3.561005e+05 2.558915e+05 2.558915e+05 2.558915e+05 4.093749e+05 4.093749e+05 4.093749e+05 1.448184e+05 1.448184e+05 1.448184e+05 4.585635e+05 4.585635e+05 4.585635e+05 4.544846e+04 4.544846e+04 4.544846e+04 4.432338e+04 3.671681e+04 1.508202e+05 1.508202e+05 1.508202e+05 5.962669e+04 5.962669e+04 6.131105e+04 2.864012e+05 2.864012e+05 2.864012e+05 2.945500e+05 1.779133e+05 1.779133e+05 1.779133e+05 1.773198e+05 1.344716e+05 1.344716e+05 5.506015e+05 5.506015e+05 5.506015e+05 5.383048e+05 1.667784e+03 1.667784e+03 1.667784e+03 3.226955e+02 7.749073e+04 7.749073e+04 7.749073e+04 7.932774e+04 5.121089e+05 5.121089e+05 5.121089e+05 3.418974e+05 3.418974e+05 3.418974e+05 3.431748e+05 1.961410e+05 1.961410e+05 1.961410e+05 1.970768e+05 1.928133e+05 1.928133e+05 1.928133e+05 1.894567e+05 2.570710e+05 2.570710e+05 2.570710e+05 2.620063e+05 6.496769e+05 6.496769e+05 6.496769e+05 6.528839e+05 6.528839e+05 6.528839e+05 6.430574e+05 6.423394e+05 6.423394e+05 6.423394e+05 6.255910e+05 6.094144e+05 6.094144e+05 5.881866e+05 3.685093e+05 3.685093e+05 3.611087e+05 7.950922e+04 7.950922e+04 8.151309e+04 2.327766e+05 2.327766e+05 2.327766e+05 2.349737e+05 2.975687e+05 2.975687e+05 2.975687e+05 6.576566e+05 6.576566e+05 6.548288e+05 3.317956e+05 3.317956e+05 3.330051e+05 2.414359e+05 6.185445e+05 6.174706e+05 1.076550e+05 1.076550e+05 1.025528e+05 6.848331e+05 6.848331e+05 6.848331e+05 7.132712e+05 2.947065e+05 2.947065e+05 5.578068e+05 5.578068e+05 5.578068e+05 6.811725e+05 6.811725e+05 6.811725e+05 6.754564e+05 6.754564e+05 6.272893e+05 6.272893e+05 6.272893e+05 6.506179e+05 6.120028e+05 6.120028e+05 6.120028e+05 5.909787e+05 5.909787e+05 1.402116e+05 1.402116e+05 1.402116e+05 1.337825e+05 1.337825e+05 5.524000e+05 5.524000e+05 5.675643e+05 5.675643e+05 6.181315e+05 6.181315e+05 6.181315e+05 5.337072e+05 5.337072e+05 5.337072e+05 5.574556e+05 1.110811e+05 1.110811e+05 1.110811e+05 1.105401e+05 1.105401e+05 -1.703911e+04 -1.703911e+04 -1.703911e+04 -1.494424e+04 -1.494424e+04 2.101086e+05 2.101086e+05 2.101086e+05 2.252144e+05 2.252144e+05 3.479350e+05 3.479350e+05 3.479350e+05 3.541754e+05 3.541754e+05 4.081166e+05 4.081166e+05 4.081166e+05 4.270387e+05 4.150653e+05 4.150653e+05 4.608737e+05 4.608737e+05 4.608737e+05 4.446905e+05 4.446905e+05 8.365031e+04 8.365031e+04 8.365031e+04 8.667488e+04 8.667488e+04 1.740251e+05 1.740251e+05 1.740251e+05 1.921475e+05 1.921475e+05 1.779791e+05 1.779791e+05 1.607574e+05 1.607574e+05 2.783227e+05 2.783227e+05 2.924248e+05 2.924248e+05 1.805736e+05 1.622414e+05 1.622414e+05 2.591286e+05 2.591286e+05 2.591286e+05 2.621246e+05 2.621246e+05 2.318574e+05 2.318574e+05 1.423035e+05 1.423035e+05 1.423035e+05 1.460756e+05 2.105599e+05 9.601842e+04 8.985107e+04 1.717175e+05 1.717175e+05 1.717175e+05 1.738299e+05 1.738299e+05 9.623583e+04 9.623583e+04 8.983247e+04 8.926098e+04 9.431357e+04 4.399607e+05 4.399607e+05 4.399607e+05 4.298240e+05 4.822947e+05 4.822947e+05 4.733750e+05 2.056965e+05 2.056965e+05 2.056965e+05 1.648454e+04 1.648454e+04 1.648454e+04 1.227528e+04 1.052911e+04 6.299079e+05 6.299079e+05 6.299079e+05 2.792894e+05 8.570884e+04 2.947457e+04 2.947457e+04 6.219907e+05 6.219907e+05 4.158016e+05 4.013481e+05 4.013481e+05 4.013481e+05 4.622583e+05 4.622583e+05 4.622583e+05 4.662929e+05 7.737152e+05 7.304598e+05 7.304598e+05 7.162225e+05 7.162225e+05 7.162225e+05 7.362315e+05 1.461048e+05 1.461048e+05 1.417099e+05 1.692249e+05 7.495877e+05 7.495877e+05 6.599022e+05 6.599022e+05 1.977953e+05 1.977953e+05 6.037341e+04 6.037341e+04 6.037341e+04 7.232818e+05 7.232818e+05 7.299977e+05 -2.015814e+04 -2.015814e+04 -1.419856e+04 6.379121e+05 7.082259e+05 7.062207e+05 7.062207e+05 7.017167e+05 3.827611e+05 3.827611e+05 3.827611e+05 3.950266e+05 5.496001e+05 5.399011e+05 7.706605e+05 7.160998e+05 5.866704e+05 5.866704e+05 5.345355e+05 5.345355e+05 5.345355e+05 5.515316e+05 1.866052e+05 1.866052e+05 1.786947e+05 1.786947e+05 3.437825e+05 6.931041e+05 6.931041e+05 6.684400e+05 4.387393e+05 4.387393e+05 4.387393e+05 5.021272e+04 7.675130e+05 7.015758e+05 4.878331e+05 4.878331e+05 4.878331e+05 4.813881e+05 4.977168e+04 4.977168e+04 4.806305e+04 4.727482e+05 4.727482e+05 4.873124e+05 9.861119e+04 9.861119e+04 2.187451e+05 2.187451e+05 7.446785e+05 6.297860e+05 6.128902e+05 4.656044e+05 6.983411e+05 6.983411e+05 5.447252e+05 7.278965e+04 6.876966e+04 6.876966e+04 1.618541e+05 1.618541e+05 1.566626e+05 1.566626e+05 6.729863e+05 6.729863e+05 4.202438e+05 6.997710e+05 3.769960e+05 3.769960e+05 3.745189e+05 4.966730e+05 4.966730e+05 4.966730e+05 7.189460e+05 7.189460e+05 2.659727e+05 2.858397e+04 2.858397e+04 5.215500e+05 5.089136e+05 5.821467e+05 3.332772e+05 -1.016813e+04 -5.279826e+03 6.770921e+05 4.452464e+05 -5.215503e+03 -5.215503e+03 -5.215503e+03 -8.353081e+03 6.436164e+05 -1.464523e+04 7.528568e+04 7.528568e+04 5.720788e+05 5.215572e+05 1.255383e+05 1.255383e+05 6.665388e+05 6.665388e+05 1.742794e+04 1.742794e+04 1.642830e+05 4.119660e+05 4.119660e+05 1.028560e+05 1.640105e+05 2.592431e+05 2.619640e+05 4.073775e+05 4.073775e+05 3.845495e+05 3.845495e+05 8.896589e+04 2.559632e+05 7.036105e+05 -1.517008e+03 2.496526e+05 5.304945e+05 6.069074e+05 -1.262455e+04 1.167898e+05 1.242492e+05 1.560607e+05 5.117285e+05 4.993480e+05 7.056047e+05 7.056047e+05 4.067629e+05 3.868082e+05 6.033336e+05 1.385881e+05 5.980985e+05 5.980985e+05 5.388808e+05 5.388808e+05 5.388808e+05 2.263483e+05 3.860032e+05 6.010099e+04 6.134794e+05 6.162239e+05 6.081684e+05 6.081684e+05 6.081684e+05 4.724912e+05 4.724912e+05 4.724912e+05 4.879238e+05 7.025060e+05 3.768698e+05 3.715332e+05 2.384143e+05 2.384143e+05 2.384143e+05 5.162470e+05 5.162470e+05 5.162470e+05 5.407794e+05 4.509364e+05 4.509364e+05 4.583148e+05 3.461444e+05 3.351473e+05 8.892971e+04 9.191100e+04 7.200784e+04 7.200784e+04 6.874321e+04 2.832836e+04 2.832836e+04 2.147895e+04 2.147895e+04 1.443527e+05 6.776381e+05 2.092111e+05 6.858967e+05 6.633954e+05 6.639073e+05 6.639073e+05 6.430488e+05 6.430488e+05 5.661887e+05 5.734932e+05 3.143398e+05 6.213044e+05 6.213044e+05 5.276747e+05 5.276747e+05 5.990558e+05 2.786177e+05 2.786177e+05 2.786177e+05 5.827689e+05 2.776130e+05 3.844867e+04 3.844867e+04 3.844867e+04 4.123368e+04 4.123368e+04 4.694765e+05 4.654183e+05 6.483580e+05 6.483580e+05 6.739975e+05 8.712488e+03 1.043460e+03 4.391795e+05 4.391795e+05 3.914960e+05 4.819619e+05 6.231973e+05 5.427571e+04 5.427571e+04 5.427571e+04 6.256888e+04 6.622835e+05 6.622835e+05 6.477154e+05 6.600694e+05 6.265569e+05 6.265569e+05 1.667294e+05 1.667294e+05 1.667294e+05 1.837915e+05 7.926833e+04 1.843481e+05 1.768080e+05 1.768080e+05 3.573688e+05 3.066394e+05 3.066394e+05 3.166827e+05 5.325743e+05 5.150628e+05 5.150628e+05 6.161165e+05 6.161165e+05 -1.759081e+04 3.555510e+05 3.555510e+05 2.285592e+05 2.170112e+05 2.170112e+05 2.918615e+05 2.912527e+05 3.669051e+05 5.914618e+05 7.355228e+04 7.355228e+04 7.355228e+04 1.262850e+05 6.133606e+05 6.029572e+05 2.695842e+05 2.695842e+05 5.780612e+05 5.780612e+05 5.780612e+05 4.425482e+05 4.425482e+05 4.425482e+05 3.824557e+05 1.525828e+05 4.312322e+05 4.312322e+05 4.312322e+05 1.058563e+04 6.449145e+05 1.301953e+05 1.425501e+05 3.526748e+05 3.459650e+05 3.459650e+05 4.196118e+05 3.235291e+05 6.173438e+05 6.148085e+05 6.148085e+05 3.039776e+05 5.775186e+05 5.775186e+05 5.837982e+05 5.758639e+05 5.869539e+05 5.697306e+05 5.697306e+05 5.689950e+05 4.159480e+05 4.159480e+05 4.135179e+05 4.135179e+05 5.597847e+05 5.597847e+05 5.403495e+05 5.403495e+05 2.845172e+05 6.220896e+05 5.980468e+05 3.282280e+05 3.282280e+05 5.048644e+05 -1.066923e+04 5.228960e+05 5.403184e+05 4.895721e+05 4.895721e+05 2.333296e+05 8.257812e+04 4.519317e+05 5.675537e+05 5.686881e+05 5.686881e+05 6.859896e+04 4.468039e+05 4.468039e+05 4.632897e+05 2.729541e+05 2.729541e+05 2.729541e+05 1.922702e+05 3.947286e+05 4.596944e+04 4.596944e+04 4.801278e+04 4.982519e+05 4.982519e+05 4.351894e+05 5.769392e+05 5.769392e+05 5.769392e+05 3.574632e+05 5.935387e+05 3.806890e+05 4.620893e+05 4.711093e+05 3.153049e+05 3.065448e+05 3.065448e+05 1.630024e+05 1.568324e+05 1.568324e+05 2.556965e+04 1.691946e+04 1.470878e+05 1.392138e+05 1.392138e+05 5.704343e+05 5.704343e+05 5.704343e+05 5.552178e+05 5.372683e+05 5.372683e+05 2.023421e+05 5.902685e+05 4.735528e+05 3.296402e+05 3.296402e+05 -1.544223e+04 -1.544223e+04 1.038049e+05 6.013100e+05 6.013100e+05 2.231069e+05 5.077942e+05 4.901492e+05 4.901492e+05 3.665848e+05 3.665848e+05 4.754394e+05 4.754394e+05 3.098377e+05 2.915412e+05 1.199617e+05 4.487613e+05 5.770212e+05 5.770212e+05 5.404789e+05 4.189960e+05 4.189960e+05 3.995403e+05 3.995403e+05 -1.926440e+04 2.914640e+05 1.679277e+05 1.758262e+05 3.371507e+05 3.287403e+05 1.014402e+05 3.892261e+05 3.892261e+05 3.892261e+05 5.508985e+05 5.508985e+05 5.681152e+05 1.167998e+05 1.167998e+05 1.167998e+05 6.848255e+04 6.848255e+04 4.830743e+05 4.830743e+05 4.966803e+05 5.578010e+05 5.487921e+05 2.659481e+05 5.168859e+05 5.168859e+05 5.077240e+05 3.176127e+05 5.321864e+05 5.321864e+05 3.768274e+05 1.562227e+05 1.562227e+05 1.562227e+05 1.416531e+05 4.293265e+05 -5.462974e+03 7.603006e+03 2.534457e+04 5.079401e+04 4.190463e+05 4.140627e+05 1.946857e+05 5.732284e+05 5.286103e+05 5.286103e+05 5.286103e+05 5.335620e+05 1.826194e+05 5.452526e+05 4.927902e+05 4.949264e+05 3.733010e+05 3.733010e+05 3.733010e+05 2.535889e+05 2.535889e+05 2.535889e+05 2.809292e+05 2.809292e+05 5.147991e+05 5.081097e+05 5.081097e+05 5.081097e+05 2.779729e+05 4.535231e+05 4.535231e+05 4.535231e+05 3.053291e+05 3.872607e+05 3.872607e+05 3.872607e+05 9.746340e+04 9.746340e+04 9.746340e+04 4.323913e+04 1.689909e+05 4.894389e+05 4.894389e+05 4.526885e+05 5.363452e+05 2.225109e+05 2.037517e+05 2.037517e+05 2.037517e+05 3.350995e+05 4.791559e+05 4.736517e+05 1.107536e+05 1.012276e+05 3.067836e+05 4.645414e+03 4.917444e+05 4.917444e+05 5.130091e+05 5.158732e+05 4.228103e+05 2.873118e+05 4.954232e+05 1.978981e+05 1.978981e+05 2.688984e+05 3.211902e+05 2.465275e+05 2.465275e+05 2.409892e+05 2.237599e+05 7.819057e+04 7.819057e+04 3.694550e+05 3.694550e+05 3.798505e+05 4.035311e+05 4.782613e+05 4.712199e+05 2.896681e+05 3.026919e+05 4.201298e+05 5.238212e+05 5.109578e+05 9.335939e+04 3.075566e+04 3.075566e+04 3.075566e+04 4.772592e+05 4.772592e+05 3.487009e+05 3.487009e+05 3.385349e+05 4.582094e+05 4.098002e+05 3.949467e+05 3.949467e+05 1.546228e+05 1.546228e+05 1.671470e+05 1.273108e+05 1.273108e+05 2.587451e+05 1.197398e+05 1.072852e+05 2.083611e+05 1.803539e+05 2.174251e+05 2.344030e+05 4.033680e+05 3.492565e+05 3.492565e+05 3.492565e+05 3.737872e+05 4.604552e+05 4.909150e+05 2.831583e+05 4.556129e+05 3.399596e+05 3.399596e+05 3.573917e+05 3.120130e+05 3.120130e+05 3.008801e+05 3.008801e+05 2.326807e+05 2.395650e+05 6.055101e+04 4.547425e+04 2.879424e+05 1.445442e+05 3.298957e+05 3.298957e+05 2.565654e+05 2.565654e+05 2.565654e+05 2.424324e+05 4.465448e+05 4.340407e+05 2.664226e+05 9.884951e+04 2.091318e+05 3.706038e+05 2.812144e+05 2.812144e+05 3.308935e+05 3.308935e+05 1.262296e+05 1.262296e+05 3.098346e+05 4.424942e+05 4.076010e+05 4.076010e+05 3.903937e+05 7.206393e+04 3.282278e+05 4.241396e+05 2.153718e+05 2.153718e+05 2.032438e+05 2.582495e+05 2.691528e+05 3.920599e+05 3.920599e+05 2.177730e+05 2.177730e+05 1.477118e+05 1.308171e+05 1.308171e+05 2.395261e+05 3.679457e+05 1.093392e+05 3.115951e+05 3.521248e+05 3.821353e+05 8.499730e+04 1.428795e+05 3.209667e+05 3.209667e+05 3.486790e+05 9.131676e+04 8.752590e+04 1.173283e+05 1.173283e+05 1.173283e+05 1.326918e+05 2.391991e+05 2.391991e+05 3.413166e+05 3.413166e+05 3.191507e+05 3.191507e+05 2.575911e+05 9.802847e+04 9.090785e+04 2.782696e+05 2.782696e+05 2.782696e+05 2.747918e+05 1.928638e+05 1.928638e+05 2.779355e+05 2.779355e+05 2.406476e+05 2.406476e+05 2.347957e+05 6.228592e+04 6.228592e+04 6.228592e+04 5.046912e+04 2.233702e+05 2.053341e+05 2.053341e+05 1.051393e+05 1.262803e+05 6.024359e+04 7.383375e+04 8.958059e+04 8.958059e+04 2.102588e+05 2.918868e+05 1.522798e+05 1.556491e+05 2.070364e+05 1.395698e+05 1.395698e+05 2.450641e+05 2.409574e+05 2.981497e+05 1.081199e+05 1.081199e+05 9.712041e+04 2.709031e+05 2.709031e+05 2.480268e+05 1.049199e+05 9.167286e+04 9.167286e+04 9.167286e+04 7.783412e+04 2.324657e+05 8.298031e+04 1.186275e+05 1.830334e+05 8.298031e+04 1.297731e+05 9.642608e+04 9.642608e+04 1.694620e+05 1.630199e+05 1.232527e+05 1.177480e+05 1.642604e+05 1.642604e+05 1.642604e+05 1.177749e+05 1.745891e+05 1.745891e+05 1.745891e+05 1.543924e+05 1.543924e+05 1.412726e+05 1.245637e+05 1.624426e+05 1.337246e+05 1.291351e+05 1.523076e+05 1.382362e+05 1.458997e+05 1.611010e+05 1.611010e+05 1.218922e+05 1.218922e+05 1.303925e+05 1.634521e+05 1.634521e+05 1.634521e+05 1.673619e+05 1.673619e+05 1.511474e+05 1.511474e+05 1.511474e+05 3.544717e+05 3.655656e+05 3.655656e+05 3.655656e+05 1.063634e+05 1.063634e+05 3.710125e+05 3.710125e+05 3.710125e+05 3.819949e+05 3.819949e+05 1.264924e+05 1.146745e+05 3.489284e+05 3.489284e+05 3.390598e+05 1.053816e+05 3.896850e+05 3.804674e+05 3.833317e+05 9.601842e+04 1.104114e+05 1.138263e+05 1.748807e+05 1.748807e+05 1.773968e+05 5.576387e+05 2.582602e+05 2.582602e+05 2.582602e+05 2.393005e+05 3.158454e+05 3.158454e+05 3.158454e+05 3.226087e+05 3.156488e+05 3.156488e+05 4.729707e+05 2.744941e+05 2.744941e+05 2.744941e+05 2.724800e+05 1.951706e+05 5.334310e+05 5.334310e+05 5.334310e+05 3.125650e+05 4.533523e+05 4.533523e+05 4.120164e+05 4.120164e+05 4.120164e+05 2.946255e+05 2.946255e+05 2.946255e+05 3.286655e+05 2.972622e+05 2.972622e+05 3.026398e+05 3.485966e+05 2.553179e+05 3.013798e+05 2.881070e+05 2.840864e+05 2.469496e+05 2.331982e+05 2.683484e+05 2.226055e+05 2.063748e+05 2.202207e+05 2.202207e+05 2.009199e+05 2.009199e+05 2.009199e+05 1.725506e+05 5.003962e+05 3.380250e+05 3.380250e+05 2.975092e+05 2.790968e+05 2.496747e+05 2.496747e+05 4.465239e+05 4.465239e+05 3.953597e+05 3.953597e+05 3.476507e+05 3.273513e+05 2.669029e+05 2.316596e+05 2.019815e+05 2.019815e+05 1.764707e+05 1.856841e+05 4.995171e+05 4.995171e+05 2.442986e+05 2.068331e+05 2.068331e+05 2.217689e+05 2.086321e+05 1.986645e+05 1.876088e+05 1.876088e+05 1.876088e+05 1.893742e+05 1.893742e+05 1.844551e+05 1.817116e+05 1.817116e+05 1.817116e+05 2.037971e+05 2.037971e+05 1.148323e+05 1.779355e+05 1.779355e+05 1.805325e+05 1.766164e+05 1.766164e+05 1.191280e+05 1.311541e+05 1.193899e+05 1.748903e+05 1.748903e+05 1.748903e+05 1.722858e+05 1.841552e+05 1.478186e+05 1.737869e+05 3.816708e+05 1.667993e+05 1.602954e+05 1.699477e+05 1.689254e+05 3.941506e+05 4.309878e+05 4.309878e+05 4.571620e+05 4.571620e+05 4.851613e+05 4.851613e+05 4.851613e+05 5.069543e+05 5.180500e+05 5.180500e+05 5.180500e+05 5.857308e+05 1.734134e+05 1.774469e+05 1.774469e+05 1.774469e+05 1.815175e+05 1.870681e+05 1.906582e+05 2.412696e+05 1.855149e+05 1.916251e+05 1.943567e+05 1.928658e+05 2.005815e+05 1.977087e+05 1.902465e+05 1.785108e+05 1.852461e+05 1.796868e+05 1.796868e+05 1.752940e+05 1.752940e+05 1.855709e+05 1.793955e+05 1.736885e+05 1.718219e+05 4.024315e+05 4.210994e+05 5.039496e+05 6.324608e+05 7.689954e+05 7.708254e+05 7.726456e+05 7.744867e+05 7.703531e+05 7.675282e+05 7.654018e+05 7.612398e+05 7.592667e+05 7.560414e+05 6.989379e+05 1.484930e+05 1.484930e+05 1.615230e+05 1.615230e+05 1.648390e+05 1.692497e+05 1.722816e+05 1.722816e+05 1.722816e+05 1.725338e+05 1.680004e+05 1.680004e+05 1.608032e+05 1.608032e+05 1.608032e+05 2.006236e+05 2.006236e+05 2.006236e+05 2.040092e+05 2.040092e+05 1.583691e+05 1.583691e+05 1.583691e+05 1.624206e+05 1.484930e+05 1.481913e+05 1.481913e+05 1.719638e+05 1.822294e+05 1.822294e+05 6.797902e+05 6.797902e+05 6.797902e+05 7.190940e+05 7.190940e+05 1.604899e+05 1.668109e+05 1.668109e+05 7.030239e+05 7.030239e+05 6.814116e+05 4.591126e+05 4.591126e+05 4.591126e+05 3.839081e+05 3.839081e+05 3.839081e+05 3.714398e+05 3.714398e+05 1.763111e+05 5.641278e+05 5.641278e+05 5.641278e+05 5.562659e+05 7.281090e+05 7.281090e+05 7.281090e+05 7.130533e+05 6.862216e+05 6.174026e+05 6.174026e+05 6.174026e+05 7.269539e+05 6.984588e+05 6.984588e+05 6.984588e+05 7.162523e+05 4.211949e+05 4.421206e+05 4.211949e+05 4.211949e+05 2.114621e+05 2.114621e+05 1.461316e+05 4.738775e+05 4.738775e+05 7.417393e+05 7.560414e+05 7.191809e+05 7.191809e+05 7.162523e+05 6.309625e+05 6.062651e+05 6.829614e+05 6.632204e+05 6.376243e+05 6.376243e+05 6.443235e+05 6.182320e+05 6.412443e+05 6.443235e+05 6.221404e+05 5.871521e+05 5.871521e+05 5.956725e+05 5.956725e+05 6.076774e+05 5.843728e+05 5.768497e+05 5.654418e+05 5.654418e+05 5.531527e+05 5.686392e+05 5.367232e+05 5.093126e+05 5.093126e+05 4.421206e+05 3.958412e+05 3.958412e+05 3.766725e+05 3.766725e+05 3.622523e+05 3.499322e+05 3.072754e+05 1.892493e+05 1.461316e+05 1.461316e+05 1.801929e+05 1.801929e+05 1.801929e+05 1.787429e+05 1.659472e+05 1.835032e+05 1.835032e+05 1.835032e+05 1.827448e+05 1.943793e+05 1.943793e+05 1.943793e+05 1.927367e+05 1.897956e+05 2.298179e+05 2.298179e+05 2.298179e+05 2.354117e+05 2.772021e+05 2.772021e+05 2.772021e+05 2.745981e+05 2.655193e+05 2.381421e+05 2.381421e+05 2.324082e+05 3.292081e+05 3.292081e+05 3.292081e+05 3.364399e+05 3.364399e+05 3.130052e+05 3.130052e+05 3.130052e+05 2.055797e+05 2.055797e+05 3.103063e+05 3.103063e+05 3.103063e+05 3.036986e+05 3.036986e+05 4.150675e+05 4.150675e+05 4.150675e+05 3.667886e+05 3.667886e+05 3.667886e+05 2.822424e+05 2.822424e+05 2.822424e+05 1.927395e+05 3.627597e+05 3.551157e+05 3.064110e+05 2.977857e+05 4.118034e+05 3.749604e+05 3.749604e+05 2.701888e+05 2.701888e+05 3.036995e+05 2.906372e+05 3.444939e+05 3.444939e+05 3.444939e+05 4.151474e+05 4.738775e+05 3.080035e+05 2.550206e+05 2.550206e+05 2.550206e+05 3.393193e+05 2.907443e+05 2.576345e+05 2.407699e+05 2.242325e+05 2.709293e+05 2.240749e+05 2.195709e+05 2.170514e+05 2.170514e+05 1.724460e+05 4.790494e+05 4.790494e+05 3.602152e+05 2.486081e+05 2.486081e+05 3.366737e+05 5.278146e+05 2.319289e+05 2.319289e+05 2.087455e+05 2.087455e+05 2.087455e+05 3.190857e+05 3.784837e+05 2.110147e+05 2.297506e+05 2.102642e+05 2.005438e+05 1.996251e+05 1.996251e+05 1.996251e+05 1.911862e+05 1.911862e+05 1.952795e+05 1.935289e+05 1.935289e+05 1.870193e+05 1.858543e+05 1.763111e+05 1.819750e+05 1.819750e+05 1.711018e+05 1.744205e+05 3.722859e+05 4.625363e+05 4.625363e+05 5.107876e+05 5.107876e+05 4.251570e+05 1.666629e+05 2.585674e+05 3.530432e+05 3.813489e+05 3.884756e+05 4.121259e+05 4.121259e+05 4.399679e+05 4.399679e+05 4.399679e+05 4.647077e+05 4.842930e+05 4.997018e+05 5.199874e+05 5.199874e+05 5.210801e+05 5.949749e+05 2.104930e+05 2.227639e+05 4.042318e+05 5.328366e+05 2.296156e+05 2.386511e+05 2.074845e+05 1.994444e+05 2.132330e+05 2.009594e+05 1.869657e+05 2.217506e+05 1.888177e+05 1.888177e+05 1.851453e+05 1.844529e+05 1.765504e+05 1.763381e+05 1.763381e+05 1.750329e+05 1.791141e+05 1.797109e+05 3.908066e+05 4.300739e+05 4.780450e+05 5.449808e+05 4.758538e+05 4.955390e+05 4.341528e+05 5.315636e+05 4.936140e+05 1.738874e+05 1.615230e+05 7.689954e+05 7.709129e+05 7.737152e+05 7.706605e+05 7.685059e+05 7.727463e+05 7.695907e+05 7.675130e+05 7.671746e+05 7.678538e+05 7.633142e+05 7.589139e+05 7.522521e+05 7.478896e+05 7.460961e+05 7.395574e+05 7.357057e+05 7.320539e+05 7.284931e+05 7.242136e+05 7.214011e+05 7.175572e+05 7.135936e+05 7.116677e+05 7.064409e+05 7.071135e+05 6.948969e+05 6.943627e+05 6.853693e+05 6.845375e+05 6.843277e+05 6.791246e+05 6.786486e+05 6.711683e+05 6.658935e+05 6.566947e+05 6.543011e+05 6.425407e+05 6.297860e+05 6.259540e+05 6.231533e+05 6.164842e+05 6.097847e+05 6.010331e+05 5.992976e+05 5.945924e+05 5.828109e+05 5.720788e+05 5.699915e+05 5.618895e+05 5.563259e+05 5.496001e+05 5.376885e+05 5.273183e+05 5.189618e+05 5.104704e+05 5.018243e+05 4.964196e+05 4.880896e+05 4.812850e+05 4.706345e+05 4.641060e+05 4.544613e+05 4.427578e+05 4.315844e+05 4.263393e+05 4.158016e+05 4.089210e+05 3.994173e+05 3.913924e+05 3.808724e+05 3.725385e+05 3.650581e+05 3.589943e+05 3.494204e+05 3.427662e+05 3.330182e+05 3.234881e+05 3.127686e+05 3.029857e+05 2.956744e+05 2.874652e+05 2.773551e+05 2.698379e+05 2.616062e+05 2.537837e+05 2.443689e+05 2.357633e+05 2.280266e+05 2.206616e+05 2.119048e+05 2.025280e+05 1.949775e+05 1.848334e+05 1.774532e+05 1.692249e+05 1.592750e+05 1.517168e+05 1.443675e+05 1.368628e+05 1.292079e+05 1.215110e+05 1.141321e+05 1.055770e+05 9.856649e+04 8.952717e+04 8.236395e+04 7.571913e+04 6.889921e+04 6.321214e+04 5.767434e+04 5.021272e+04 4.394537e+04 3.724474e+04 3.051120e+04 2.569058e+04 1.844343e+04 1.164325e+04 5.126340e+03 -2.938066e+03 -5.279826e+03 -1.016813e+04 -1.704734e+04 -1.704734e+04 1.219524e+05 1.219524e+05 1.576834e+05 1.606751e+05 1.641920e+05 1.689254e+05 1.725506e+05 1.725506e+05 1.731273e+05 1.750329e+05 1.765504e+05 1.765504e+05 1.814373e+05 1.814373e+05 1.869657e+05 1.897956e+05 1.909509e+05 1.950992e+05 1.994444e+05 2.104930e+05 2.104930e+05 2.227639e+05 2.227639e+05 2.296156e+05 2.449374e+05 2.486081e+05 2.585674e+05 2.635092e+05 2.777526e+05 2.878072e+05 2.977857e+05 3.142507e+05 3.190467e+05 3.364399e+05 3.540493e+05 3.681171e+05 3.813489e+05 3.813489e+05 3.947297e+05 4.210221e+05 4.210221e+05 4.493503e+05 4.592181e+05 4.592181e+05 4.790494e+05 4.997018e+05 4.997018e+05 5.199874e+05 5.328366e+05 5.553425e+05 5.553425e+05 5.715239e+05 6.062651e+05 6.309625e+05 6.868827e+05 7.137986e+05 1.201734e+05 2.196857e+05 2.196857e+05 2.196857e+05 2.251351e+05 1.888877e+05 1.888877e+05 1.888877e+05 1.965124e+05 1.965124e+05 2.345419e+05 2.345419e+05 2.345419e+05 2.366988e+05 2.332396e+05 1.063634e+05 2.009093e+05 2.009093e+05 1.950158e+05 2.217750e+05 2.217750e+05 2.217750e+05 2.174235e+05 2.136767e+05 4.028455e+05 4.028455e+05 4.028455e+05 3.938663e+05 1.440561e+05 1.440561e+05 1.440561e+05 1.401071e+05 1.356797e+05 1.356797e+05 2.134710e+05 2.134710e+05 1.888128e+05 1.847728e+05 1.201734e+05 1.201734e+05 1.642419e+05 1.642419e+05 1.642419e+05 1.615680e+05 1.555129e+05 1.555129e+05 1.599279e+05 2.021311e+05 2.021311e+05 2.021311e+05 2.025716e+05 1.953892e+05 2.119511e+05 2.112646e+05 1.604227e+05 1.604227e+05 1.604227e+05 1.517223e+05 8.113145e+04 6.024359e+04 4.083913e+04 6.024359e+04 3.332379e+05 3.332379e+05 3.332379e+05 3.893978e+05 3.893978e+05 3.893978e+05 3.759397e+05 6.724809e+03 -5.526221e+03 6.724809e+03 6.724809e+03 3.181824e+05 3.181824e+05 3.181824e+05 3.185746e+05 4.542084e+05 4.542084e+05 4.542084e+05 4.468583e+05 5.212155e+05 5.212155e+05 5.212155e+05 5.025673e+05 5.025673e+05 4.359330e+04 4.359330e+04 4.359330e+04 3.969019e+04 9.966322e+04 9.966322e+04 9.966322e+04 9.084672e+04 9.084672e+04 5.869108e+05 5.869108e+05 5.869108e+05 5.962427e+05 2.420067e+05 2.420067e+05 2.420067e+05 2.416604e+05 2.416604e+05 -2.183541e+04 -1.806163e+04 5.697169e+05 5.697169e+05 5.697169e+05 5.565118e+05 6.222551e+05 6.222551e+05 6.222551e+05 6.448266e+05 6.448266e+05 3.095167e+05 3.095167e+05 3.095167e+05 3.038026e+05 6.067769e+05 6.067769e+05 6.067769e+05 5.871228e+05 3.724474e+04 4.282103e+05 4.282103e+05 4.282103e+05 3.465746e+05 3.465746e+05 3.465746e+05 3.470212e+05 2.680639e+05 2.680639e+05 2.680639e+05 2.694626e+05 1.517168e+05 1.183869e+05 1.183869e+05 1.183869e+05 1.150834e+05 2.160259e+05 2.160259e+05 2.160259e+05 2.148138e+05 2.148138e+05 -1.806163e+04 -1.806163e+04 -2.183541e+04 5.134585e+05 5.134585e+05 5.134585e+05 5.372438e+05 5.372438e+05 2.398717e+05 2.460564e+05 2.460564e+05 4.370010e+05 4.370010e+05 4.370010e+05 4.554601e+05 4.554601e+05 4.153505e+05 4.153505e+05 4.153505e+05 4.208322e+05 5.238124e+04 3.485648e+04 5.238124e+04 5.238124e+04 8.752590e+04 1.953398e+05 1.953398e+05 1.953398e+05 2.035738e+05 2.147271e+05 2.265165e+05 2.265165e+05 1.411171e+05 1.411171e+05 1.250781e+05 1.250781e+05 2.413822e+05 2.413822e+05 2.413822e+05 2.569402e+05 2.569402e+05 1.301755e+05 1.301755e+05 1.301755e+05 1.294216e+05 1.231301e+05 1.781627e+05 1.617217e+05 3.148040e+05 3.148040e+05 3.148040e+05 3.088765e+05 3.639156e+05 3.639156e+05 3.639156e+05 3.561005e+05 2.558915e+05 2.558915e+05 2.558915e+05 4.093749e+05 4.093749e+05 4.093749e+05 1.448184e+05 1.448184e+05 1.448184e+05 4.585635e+05 4.585635e+05 4.585635e+05 4.544846e+04 4.544846e+04 4.544846e+04 4.432338e+04 3.671681e+04 1.508202e+05 1.508202e+05 1.508202e+05 5.962669e+04 5.962669e+04 6.131105e+04 2.864012e+05 2.864012e+05 2.864012e+05 2.945500e+05 1.779133e+05 1.779133e+05 1.779133e+05 1.773198e+05 1.344716e+05 1.344716e+05 5.506015e+05 5.506015e+05 5.506015e+05 5.383048e+05 1.667784e+03 1.667784e+03 1.667784e+03 3.226955e+02 7.749073e+04 7.749073e+04 7.749073e+04 7.932774e+04 5.121089e+05 5.121089e+05 5.121089e+05 3.418974e+05 3.418974e+05 3.418974e+05 3.431748e+05 1.961410e+05 1.961410e+05 1.961410e+05 1.970768e+05 1.928133e+05 1.928133e+05 1.928133e+05 1.894567e+05 2.57071