<?xml version="1.0"?>
 <VTKFile type="UnstructuredGrid" version="1.0" byte_order="LittleEndian" header_type="UInt64">
  <UnstructuredGrid>
    <FieldData>
     <DataArray type="Float64" Name="TimeValue" NumberOfTuples="1" format="ascii">
0.00018
     </DataArray>
    </FieldData>
   <Piece NumberOfPoints="3662" NumberOfCells="3444">
    <PointData>
     <DataArray type="Float64" Name="pointP" format="ascii">
1.452652e+05 1.452639e+05 1.452841e+05 1.452102e+05 1.451322e+05 1.450831e+05 1.450021e+05 1.449403e+05 1.448639e+05 1.448043e+05 1.446979e+05 1.445833e+05 1.444339e+05 1.442902e+05 1.441117e+05 1.439914e+05 1.438488e+05 1.436721e+05 1.434609e+05 1.432591e+05 1.430840e+05 1.428286e+05 1.426324e+05 1.424203e+05 1.422207e+05 1.420298e+05 1.417370e+05 1.414787e+05 1.411924e+05 1.408354e+05 1.404829e+05 1.402560e+05 1.399141e+05 1.396641e+05 1.393512e+05 1.389749e+05 1.386279e+05 1.383262e+05 1.378764e+05 1.374571e+05 1.370932e+05 1.367035e+05 1.363410e+05 1.359108e+05 1.355387e+05 1.351176e+05 1.346863e+05 1.342324e+05 1.337744e+05 1.333060e+05 1.328901e+05 1.324113e+05 1.319754e+05 1.313994e+05 1.309076e+05 1.303841e+05 1.299263e+05 1.294722e+05 1.289414e+05 1.284443e+05 1.279561e+05 1.274587e+05 1.268115e+05 1.262991e+05 1.256617e+05 1.251526e+05 1.245310e+05 1.239919e+05 1.234021e+05 1.228794e+05 1.222354e+05 1.216264e+05 1.210238e+05 1.204031e+05 1.199068e+05 1.193382e+05 1.187559e+05 1.181554e+05 1.175040e+05 1.168403e+05 1.162848e+05 1.156869e+05 1.150185e+05 1.144239e+05 1.138086e+05 1.131874e+05 1.124862e+05 1.118447e+05 1.112703e+05 1.106737e+05 1.100603e+05 1.093317e+05 1.087631e+05 1.080135e+05 1.074214e+05 1.067631e+05 1.060653e+05 1.054498e+05 1.048320e+05 1.041990e+05 1.036049e+05 1.029506e+05 1.023420e+05 1.016784e+05 1.010780e+05 1.003516e+05 9.971225e+04 9.905545e+04 9.842195e+04 9.778409e+04 9.720711e+04 9.649976e+04 9.591250e+04 9.528260e+04 9.470779e+04 9.410627e+04 9.341966e+04 9.282975e+04 9.225386e+04 9.170724e+04 9.102151e+04 9.045649e+04 8.976635e+04 8.976635e+04 1.036803e+05 1.059227e+05 1.069637e+05 1.070758e+05 1.073489e+05 1.077730e+05 1.081113e+05 1.081113e+05 1.081563e+05 1.083218e+05 1.084649e+05 1.084649e+05 1.089159e+05 1.089159e+05 1.094828e+05 1.097774e+05 1.098968e+05 1.102874e+05 1.107200e+05 1.118154e+05 1.118154e+05 1.130804e+05 1.130804e+05 1.138010e+05 1.152890e+05 1.156822e+05 1.166269e+05 1.170937e+05 1.184666e+05 1.194268e+05 1.203280e+05 1.217908e+05 1.222640e+05 1.238375e+05 1.254506e+05 1.267199e+05 1.278319e+05 1.278319e+05 1.288715e+05 1.310491e+05 1.310491e+05 1.333189e+05 1.340078e+05 1.340078e+05 1.355113e+05 1.369892e+05 1.369892e+05 1.383376e+05 1.391379e+05 1.403377e+05 1.403377e+05 1.411165e+05 1.423258e+05 1.430318e+05 1.441928e+05 1.445876e+05 1.034882e+05 1.127763e+05 1.127763e+05 1.127763e+05 1.133594e+05 1.096388e+05 1.096388e+05 1.096388e+05 1.103663e+05 1.103663e+05 1.142771e+05 1.142771e+05 1.142771e+05 1.144846e+05 1.140961e+05 1.022077e+05 1.108188e+05 1.108188e+05 1.102638e+05 1.129743e+05 1.129743e+05 1.129743e+05 1.125387e+05 1.121500e+05 1.265654e+05 1.265654e+05 1.265654e+05 1.259907e+05 1.056464e+05 1.056464e+05 1.056464e+05 1.053160e+05 1.049689e+05 1.049689e+05 1.121308e+05 1.121308e+05 1.096775e+05 1.092675e+05 1.034882e+05 1.034882e+05 1.073794e+05 1.073794e+05 1.073794e+05 1.071392e+05 1.066458e+05 1.066458e+05 1.070047e+05 1.108902e+05 1.108902e+05 1.108902e+05 1.109631e+05 1.102931e+05 1.118626e+05 1.118122e+05 1.069269e+05 1.069269e+05 1.069269e+05 1.060777e+05 9.929792e+04 9.709388e+04 9.525045e+04 9.709388e+04 1.231600e+05 1.231600e+05 1.231600e+05 1.277575e+05 1.277575e+05 1.277575e+05 1.266296e+05 9.238018e+04 9.158627e+04 9.238018e+04 9.238018e+04 1.208330e+05 1.208330e+05 1.208330e+05 1.208220e+05 1.314390e+05 1.314390e+05 1.314390e+05 1.310953e+05 1.362240e+05 1.362240e+05 1.362240e+05 1.352314e+05 1.352314e+05 9.553443e+04 9.553443e+04 9.553443e+04 9.514831e+04 1.009770e+05 1.009770e+05 1.009770e+05 1.001423e+05 1.001423e+05 1.410496e+05 1.410496e+05 1.410496e+05 1.414403e+05 1.134454e+05 1.134454e+05 1.134454e+05 1.135064e+05 1.135064e+05 8.938875e+04 8.979687e+04 1.368712e+05 1.368712e+05 1.368712e+05 1.365908e+05 1.396704e+05 1.396704e+05 1.396704e+05 1.402135e+05 1.402135e+05 1.180687e+05 1.180687e+05 1.180687e+05 1.178795e+05 1.382663e+05 1.382663e+05 1.382663e+05 1.378753e+05 9.528260e+04 1.263904e+05 1.263904e+05 1.263904e+05 1.204981e+05 1.204981e+05 1.204981e+05 1.201503e+05 1.148743e+05 1.148743e+05 1.148743e+05 1.146427e+05 1.054498e+05 1.026462e+05 1.026462e+05 1.026462e+05 1.023723e+05 1.108120e+05 1.108120e+05 1.108120e+05 1.108923e+05 1.108923e+05 8.979687e+04 8.979687e+04 8.938875e+04 1.362763e+05 1.362763e+05 1.362763e+05 1.373623e+05 1.373623e+05 1.134121e+05 1.140035e+05 1.140035e+05 1.309159e+05 1.309159e+05 1.309159e+05 1.320245e+05 1.320245e+05 1.296142e+05 1.296142e+05 1.296142e+05 1.299935e+05 9.597246e+04 9.505684e+04 9.597246e+04 9.597246e+04 9.647819e+04 1.102240e+05 1.102240e+05 1.102240e+05 1.109526e+05 1.120313e+05 1.131959e+05 1.131959e+05 1.050060e+05 1.050060e+05 1.034928e+05 1.034928e+05 1.148122e+05 1.148122e+05 1.148122e+05 1.163479e+05 1.163479e+05 1.042836e+05 1.042836e+05 1.042836e+05 1.042860e+05 1.036335e+05 1.086092e+05 1.070614e+05 1.213225e+05 1.213225e+05 1.213225e+05 1.208476e+05 1.254517e+05 1.254517e+05 1.254517e+05 1.247520e+05 1.156093e+05 1.156093e+05 1.156093e+05 1.295523e+05 1.295523e+05 1.295523e+05 1.050154e+05 1.050154e+05 1.050154e+05 1.334540e+05 1.334540e+05 1.334540e+05 9.598420e+04 9.598420e+04 9.598420e+04 9.594056e+04 9.525848e+04 1.056169e+05 1.056169e+05 1.056169e+05 9.729740e+04 9.729740e+04 9.744093e+04 1.178449e+05 1.178449e+05 1.178449e+05 1.185775e+05 1.080830e+05 1.080830e+05 1.080830e+05 1.079933e+05 1.041349e+05 1.041349e+05 1.397368e+05 1.397368e+05 1.397368e+05 1.390937e+05 9.224570e+04 9.224570e+04 9.224570e+04 9.226750e+04 9.890323e+04 9.890323e+04 9.890323e+04 9.906400e+04 1.364032e+05 1.364032e+05 1.364032e+05 1.221593e+05 1.221593e+05 1.221593e+05 1.223727e+05 1.094742e+05 1.094742e+05 1.094742e+05 1.095582e+05 1.089940e+05 1.089940e+05 1.089940e+05 1.087958e+05 1.146527e+05 1.146527e+05 1.146527e+05 1.151104e+05 1.432586e+05 1.432586e+05 1.432586e+05 1.412838e+05 1.412838e+05 1.412838e+05 1.412296e+05 1.395675e+05 1.395675e+05 1.395675e+05 1.392002e+05 1.371008e+05 1.371008e+05 1.367935e+05 1.217259e+05 1.217259e+05 1.216432e+05 9.937238e+04 9.937238e+04 9.947055e+04 1.119879e+05 1.119879e+05 1.119879e+05 1.122674e+05 1.171076e+05 1.171076e+05 1.171076e+05 1.411641e+05 1.411641e+05 1.410118e+05 1.193915e+05 1.193915e+05 1.190201e+05 1.126912e+05 1.383110e+05 1.382139e+05 1.017728e+05 1.017728e+05 1.013614e+05 1.431654e+05 1.431654e+05 1.431654e+05 1.434299e+05 1.164810e+05 1.164810e+05 1.346671e+05 1.346671e+05 1.346671e+05 1.437890e+05 1.437890e+05 1.437890e+05 1.436150e+05 1.436150e+05 1.420977e+05 1.420977e+05 1.420977e+05 1.424990e+05 1.400564e+05 1.400564e+05 1.400564e+05 1.397564e+05 1.397564e+05 1.044968e+05 1.044968e+05 1.044968e+05 1.039566e+05 1.039566e+05 1.401824e+05 1.401824e+05 1.408294e+05 1.408294e+05 1.423118e+05 1.423118e+05 1.423118e+05 1.363539e+05 1.363539e+05 1.363539e+05 1.371193e+05 1.020179e+05 1.020179e+05 1.020179e+05 1.019643e+05 1.019643e+05 9.106641e+04 9.106641e+04 9.106641e+04 9.188457e+04 9.188457e+04 1.109219e+05 1.109219e+05 1.109219e+05 1.122866e+05 1.122866e+05 1.231882e+05 1.231882e+05 1.231882e+05 1.238574e+05 1.238574e+05 1.286641e+05 1.286641e+05 1.286641e+05 1.299196e+05 1.305723e+05 1.305723e+05 1.339035e+05 1.339035e+05 1.339035e+05 1.326105e+05 1.326105e+05 9.899266e+04 9.899266e+04 9.899266e+04 9.955887e+04 9.955887e+04 1.078784e+05 1.078784e+05 1.078784e+05 1.095148e+05 1.095148e+05 1.082723e+05 1.082723e+05 1.066659e+05 1.066659e+05 1.177116e+05 1.177116e+05 1.190589e+05 1.190589e+05 1.085493e+05 1.068501e+05 1.068501e+05 1.163296e+05 1.163296e+05 1.163296e+05 1.167060e+05 1.167060e+05 1.137878e+05 1.137878e+05 1.053332e+05 1.053332e+05 1.053332e+05 1.056130e+05 1.117465e+05 1.009833e+05 1.003848e+05 1.078860e+05 1.078860e+05 1.078860e+05 1.081252e+05 1.081252e+05 1.000635e+05 1.000635e+05 9.928554e+04 9.894099e+04 9.934855e+04 1.317053e+05 1.317053e+05 1.317053e+05 1.308915e+05 1.355044e+05 1.355044e+05 1.348745e+05 1.098349e+05 1.098349e+05 1.098349e+05 9.311962e+04 9.311962e+04 9.311962e+04 9.280073e+04 9.262924e+04 1.416092e+05 1.416092e+05 1.416092e+05 1.154000e+05 9.998386e+04 9.448082e+04 9.448082e+04 1.389563e+05 1.389563e+05 1.245310e+05 1.247165e+05 1.247165e+05 1.247165e+05 1.284450e+05 1.284450e+05 1.284450e+05 1.281665e+05 1.452841e+05 1.448993e+05 1.448993e+05 1.441886e+05 1.441886e+05 1.441886e+05 1.443338e+05 1.049751e+05 1.049751e+05 1.046361e+05 1.067631e+05 1.448565e+05 1.448565e+05 1.416726e+05 1.416726e+05 1.090255e+05 1.090255e+05 9.734636e+04 9.734636e+04 9.734636e+04 1.439148e+05 1.439148e+05 1.440677e+05 8.951414e+04 8.951414e+04 9.007988e+04 1.403869e+05 1.435536e+05 1.430390e+05 1.430390e+05 1.431169e+05 1.235541e+05 1.235541e+05 1.235541e+05 1.235152e+05 1.324113e+05 1.324867e+05 1.452102e+05 1.446730e+05 1.360078e+05 1.360078e+05 1.332934e+05 1.332934e+05 1.332934e+05 1.333118e+05 1.081783e+05 1.081783e+05 1.076611e+05 1.076611e+05 1.205293e+05 1.426692e+05 1.426692e+05 1.421970e+05 1.272120e+05 1.272120e+05 1.272120e+05 9.649976e+04 1.449403e+05 1.441737e+05 1.302931e+05 1.302931e+05 1.302931e+05 1.300185e+05 9.634120e+04 9.634120e+04 9.620836e+04 1.295553e+05 1.295553e+05 1.295529e+05 1.009710e+05 1.009710e+05 1.107971e+05 1.107971e+05 1.445489e+05 1.378764e+05 1.378084e+05 1.288604e+05 1.437276e+05 1.437276e+05 1.342688e+05 9.874223e+04 9.822871e+04 9.822871e+04 1.062441e+05 1.062441e+05 1.059064e+05 1.059064e+05 1.420963e+05 1.420963e+05 1.252291e+05 1.439168e+05 1.224962e+05 1.224962e+05 1.227856e+05 1.310260e+05 1.310260e+05 1.310260e+05 1.447355e+05 1.447355e+05 1.148863e+05 9.420288e+04 9.420288e+04 1.321683e+05 1.317341e+05 1.351601e+05 1.198464e+05 9.045649e+04 9.102151e+04 1.427650e+05 1.278769e+05 9.165935e+04 9.165935e+04 9.165935e+04 9.098463e+04 1.414445e+05 9.002153e+04 9.868904e+04 9.868904e+04 1.342324e+05 1.325657e+05 1.032549e+05 1.032549e+05 1.430134e+05 1.430134e+05 9.324860e+04 9.324860e+04 1.065471e+05 1.262446e+05 1.262446e+05 1.013007e+05 1.065742e+05 1.142607e+05 1.140416e+05 1.253199e+05 1.253199e+05 1.245743e+05 1.245743e+05 1.001424e+05 1.141827e+05 1.442832e+05 9.145312e+04 1.133375e+05 1.336757e+05 1.389365e+05 9.099477e+04 1.025099e+05 1.031579e+05 1.059075e+05 1.328575e+05 1.326295e+05 1.444542e+05 1.444542e+05 1.254632e+05 1.248200e+05 1.367105e+05 1.043993e+05 1.394318e+05 1.394318e+05 1.352347e+05 1.352347e+05 1.352347e+05 1.118246e+05 1.243794e+05 9.724423e+04 1.405587e+05 1.408316e+05 1.408836e+05 1.408836e+05 1.408836e+05 1.312037e+05 1.312037e+05 1.312037e+05 1.314546e+05 1.440924e+05 1.237081e+05 1.236012e+05 1.129223e+05 1.129223e+05 1.129223e+05 1.341107e+05 1.341107e+05 1.341107e+05 1.347148e+05 1.290384e+05 1.290384e+05 1.295458e+05 1.209278e+05 1.204759e+05 1.000597e+05 1.002904e+05 9.834110e+04 9.834110e+04 9.804005e+04 9.397903e+04 9.397903e+04 9.375364e+04 9.375364e+04 1.048593e+05 1.432745e+05 1.104876e+05 1.441676e+05 1.437753e+05 1.432870e+05 1.432870e+05 1.428748e+05 1.428748e+05 1.352641e+05 1.364173e+05 1.187751e+05 1.415898e+05 1.415898e+05 1.352782e+05 1.352782e+05 1.401683e+05 1.161377e+05 1.161377e+05 1.161377e+05 1.379662e+05 1.159144e+05 9.518449e+04 9.518449e+04 9.518449e+04 9.538160e+04 9.538160e+04 1.301342e+05 1.302650e+05 1.434702e+05 1.434702e+05 1.440184e+05 9.256686e+04 9.297588e+04 1.282518e+05 1.282518e+05 1.254211e+05 1.317479e+05 1.417995e+05 9.676662e+04 9.676662e+04 9.676662e+04 9.749205e+04 1.436744e+05 1.436744e+05 1.434133e+05 1.430563e+05 1.423124e+05 1.423124e+05 1.068854e+05 1.068854e+05 1.068854e+05 1.081530e+05 9.908011e+04 1.083158e+05 1.076963e+05 1.076963e+05 1.220636e+05 1.187046e+05 1.187046e+05 1.195239e+05 1.360987e+05 1.350730e+05 1.350730e+05 1.419348e+05 1.419348e+05 8.978854e+04 1.231048e+05 1.231048e+05 1.121971e+05 1.113046e+05 1.113046e+05 1.171698e+05 1.173150e+05 1.230659e+05 1.403666e+05 9.855461e+04 9.855461e+04 9.855461e+04 1.033452e+05 1.417000e+05 1.413854e+05 1.158322e+05 1.158322e+05 1.401327e+05 1.401327e+05 1.401327e+05 1.298964e+05 1.298964e+05 1.298964e+05 1.249325e+05 1.056186e+05 1.287458e+05 1.287458e+05 1.287458e+05 9.339920e+04 1.432621e+05 1.037099e+05 1.047327e+05 1.220411e+05 1.220857e+05 1.220857e+05 1.273081e+05 1.200504e+05 1.422450e+05 1.424725e+05 1.424725e+05 1.184170e+05 1.390372e+05 1.390372e+05 1.388668e+05 1.384196e+05 1.401606e+05 1.394594e+05 1.394594e+05 1.378913e+05 1.279710e+05 1.279710e+05 1.275589e+05 1.275589e+05 1.387811e+05 1.387811e+05 1.378731e+05 1.378731e+05 1.170815e+05 1.426022e+05 1.418349e+05 1.206132e+05 1.206132e+05 1.336592e+05 9.108494e+04 1.347260e+05 1.372410e+05 1.328707e+05 1.328707e+05 1.127727e+05 9.938630e+04 1.300573e+05 1.396367e+05 1.398767e+05 1.398767e+05 9.809040e+04 1.304266e+05 1.304266e+05 1.311461e+05 1.163222e+05 1.163222e+05 1.163222e+05 1.091809e+05 1.263394e+05 9.585845e+04 9.585845e+04 9.606005e+04 1.339130e+05 1.339130e+05 1.295356e+05 1.405563e+05 1.405563e+05 1.405563e+05 1.233467e+05 1.413690e+05 1.251243e+05 1.321884e+05 1.316883e+05 1.197225e+05 1.191983e+05 1.191983e+05 1.066056e+05 1.060583e+05 1.060583e+05 9.416925e+04 9.366912e+04 1.051856e+05 1.044778e+05 1.044778e+05 1.405081e+05 1.405081e+05 1.405081e+05 1.387667e+05 1.380107e+05 1.380107e+05 1.100776e+05 1.409003e+05 1.325302e+05 1.210345e+05 1.210345e+05 9.007480e+04 9.007480e+04 1.013802e+05 1.418862e+05 1.418862e+05 1.118821e+05 1.350530e+05 1.340359e+05 1.340359e+05 1.243196e+05 1.243196e+05 1.334508e+05 1.334508e+05 1.191457e+05 1.177597e+05 1.028076e+05 1.309694e+05 1.410588e+05 1.410588e+05 1.383507e+05 1.288286e+05 1.288286e+05 1.274752e+05 1.274752e+05 8.989790e+04 1.179426e+05 1.070830e+05 1.076694e+05 1.219711e+05 1.213133e+05 1.011300e+05 1.264442e+05 1.264442e+05 1.264442e+05 1.391575e+05 1.391575e+05 1.400247e+05 1.024886e+05 1.024886e+05 1.024886e+05 9.806310e+04 9.806310e+04 1.341872e+05 1.341872e+05 1.351021e+05 1.395665e+05 1.392176e+05 1.157939e+05 1.369619e+05 1.369619e+05 1.364312e+05 1.203508e+05 1.380492e+05 1.380492e+05 1.252348e+05 1.060748e+05 1.060748e+05 1.060748e+05 1.047444e+05 1.296490e+05 9.161771e+04 9.286230e+04 9.428844e+04 9.639115e+04 1.290276e+05 1.280347e+05 1.094420e+05 1.404708e+05 1.383562e+05 1.383562e+05 1.383562e+05 1.386244e+05 1.083999e+05 1.390789e+05 1.350862e+05 1.353584e+05 1.255598e+05 1.255598e+05 1.255598e+05 1.148653e+05 1.148653e+05 1.148653e+05 1.172345e+05 1.172345e+05 1.375894e+05 1.369560e+05 1.369560e+05 1.369560e+05 1.171377e+05 1.323795e+05 1.323795e+05 1.323795e+05 1.192718e+05 1.269270e+05 1.269270e+05 1.269270e+05 1.006994e+05 1.006994e+05 1.006994e+05 9.568354e+04 1.072595e+05 1.353310e+05 1.353310e+05 1.321007e+05 1.385270e+05 1.121047e+05 1.104566e+05 1.104566e+05 1.104566e+05 1.222626e+05 1.344846e+05 1.339788e+05 1.019655e+05 1.010259e+05 1.197067e+05 9.274667e+04 1.358895e+05 1.358895e+05 1.371810e+05 1.370424e+05 1.298008e+05 1.180482e+05 1.360131e+05 1.099646e+05 1.099646e+05 1.162224e+05 1.211540e+05 1.143781e+05 1.143781e+05 1.138525e+05 1.122936e+05 9.892568e+04 9.892568e+04 1.254986e+05 1.254986e+05 1.264336e+05 1.280541e+05 1.345554e+05 1.341157e+05 1.183198e+05 1.195022e+05 1.297641e+05 1.379302e+05 1.372677e+05 1.002633e+05 9.482671e+04 9.482671e+04 9.482671e+04 1.347369e+05 1.347369e+05 1.236910e+05 1.236910e+05 1.228149e+05 1.331763e+05 1.289438e+05 1.278589e+05 1.278589e+05 1.059790e+05 1.059790e+05 1.071594e+05 1.034859e+05 1.034859e+05 1.155379e+05 1.027821e+05 1.016027e+05 1.109533e+05 1.083917e+05 1.118138e+05 1.133339e+05 1.286793e+05 1.239756e+05 1.239756e+05 1.239756e+05 1.260212e+05 1.334662e+05 1.358786e+05 1.177788e+05 1.333947e+05 1.230842e+05 1.230842e+05 1.247005e+05 1.204987e+05 1.204987e+05 1.195496e+05 1.195496e+05 1.132264e+05 1.138672e+05 9.540796e+04 9.599269e+04 1.182409e+05 1.050383e+05 1.222780e+05 1.222780e+05 1.154857e+05 1.154857e+05 1.154857e+05 1.141671e+05 1.325647e+05 1.316872e+05 1.162847e+05 1.006819e+05 1.110786e+05 1.258580e+05 1.177594e+05 1.177594e+05 1.224690e+05 1.224690e+05 1.032191e+05 1.032191e+05 1.204400e+05 1.320946e+05 1.292349e+05 1.292349e+05 1.277836e+05 9.712061e+04 1.221909e+05 1.308161e+05 1.117180e+05 1.117180e+05 1.106115e+05 1.157406e+05 1.167647e+05 1.282075e+05 1.282075e+05 1.119859e+05 1.119859e+05 1.053482e+05 1.036026e+05 1.036026e+05 1.140816e+05 1.259041e+05 1.012745e+05 1.206942e+05 1.244839e+05 1.273318e+05 9.746223e+04 1.048680e+05 1.217015e+05 1.217015e+05 1.243708e+05 9.856244e+04 9.647819e+04 1.021534e+05 1.021534e+05 1.021534e+05 1.038366e+05 1.141339e+05 1.141339e+05 1.239391e+05 1.239391e+05 1.219803e+05 1.219803e+05 1.158398e+05 9.982088e+04 9.888661e+04 1.179788e+05 1.179788e+05 1.179788e+05 1.175878e+05 1.097371e+05 1.097371e+05 1.180257e+05 1.180257e+05 1.143395e+05 1.143395e+05 1.138367e+05 9.645243e+04 9.645243e+04 9.645243e+04 9.527982e+04 1.127608e+05 1.110253e+05 1.110253e+05 1.007955e+05 1.032537e+05 9.709388e+04 9.804173e+04 9.957282e+04 9.957282e+04 1.113674e+05 1.193850e+05 1.059903e+05 1.062914e+05 1.112405e+05 1.046758e+05 1.046758e+05 1.149557e+05 1.145086e+05 1.199704e+05 1.017086e+05 1.017086e+05 1.000914e+05 1.177038e+05 1.177038e+05 1.153120e+05 1.015038e+05 1.003252e+05 1.003252e+05 1.003252e+05 9.886893e+04 1.137946e+05 9.953211e+04 1.029022e+05 1.091150e+05 9.953211e+04 1.041320e+05 1.009775e+05 1.009775e+05 1.078318e+05 1.072500e+05 1.035656e+05 1.029620e+05 1.073775e+05 1.073775e+05 1.073775e+05 1.031024e+05 1.083135e+05 1.083135e+05 1.083135e+05 1.064861e+05 1.064861e+05 1.053811e+05 1.038187e+05 1.072082e+05 1.047476e+05 1.042884e+05 1.063694e+05 1.051164e+05 1.057943e+05 1.071081e+05 1.071081e+05 1.036689e+05 1.036689e+05 1.044368e+05 1.072830e+05 1.072830e+05 1.072830e+05 1.076162e+05 1.076162e+05 1.062372e+05 1.062372e+05 1.062372e+05 1.255076e+05 1.264263e+05 1.264263e+05 1.264263e+05 1.022077e+05 1.022077e+05 1.267044e+05 1.267044e+05 1.267044e+05 1.277445e+05 1.277445e+05 1.041772e+05 1.029846e+05 1.248358e+05 1.248358e+05 1.239626e+05 1.021714e+05 1.284132e+05 1.277195e+05 1.279463e+05 1.009833e+05 1.026178e+05 1.029461e+05 1.082902e+05 1.082902e+05 1.085424e+05 1.402826e+05 1.165837e+05 1.165837e+05 1.165837e+05 1.146253e+05 1.219399e+05 1.219399e+05 1.219399e+05 1.225232e+05 1.218389e+05 1.218389e+05 1.350473e+05 1.181333e+05 1.181333e+05 1.181333e+05 1.179676e+05 1.103120e+05 1.391116e+05 1.391116e+05 1.391116e+05 1.216550e+05 1.335839e+05 1.335839e+05 1.302630e+05 1.302630e+05 1.302630e+05 1.199980e+05 1.199980e+05 1.199980e+05 1.230793e+05 1.201800e+05 1.201800e+05 1.205204e+05 1.246456e+05 1.162853e+05 1.205448e+05 1.194220e+05 1.187574e+05 1.154614e+05 1.140521e+05 1.173487e+05 1.129459e+05 1.113793e+05 1.127412e+05 1.127412e+05 1.108452e+05 1.108452e+05 1.108452e+05 1.081113e+05 1.370240e+05 1.239669e+05 1.239669e+05 1.203087e+05 1.185986e+05 1.157954e+05 1.157954e+05 1.328901e+05 1.328901e+05 1.287748e+05 1.287748e+05 1.248632e+05 1.229768e+05 1.174258e+05 1.140302e+05 1.109855e+05 1.109855e+05 1.084604e+05 1.093094e+05 1.367592e+05 1.367592e+05 1.152694e+05 1.114494e+05 1.114494e+05 1.129636e+05 1.116052e+05 1.105969e+05 1.095145e+05 1.095145e+05 1.095145e+05 1.097101e+05 1.097101e+05 1.091922e+05 1.089629e+05 1.089629e+05 1.089629e+05 1.111498e+05 1.111498e+05 1.029793e+05 1.085965e+05 1.085965e+05 1.088114e+05 1.084624e+05 1.084624e+05 1.034272e+05 1.045877e+05 1.034981e+05 1.083152e+05 1.083152e+05 1.083152e+05 1.080687e+05 1.092068e+05 1.059490e+05 1.081999e+05 1.275365e+05 1.075387e+05 1.069954e+05 1.078413e+05 1.077730e+05 1.288481e+05 1.318093e+05 1.318093e+05 1.337601e+05 1.337601e+05 1.358870e+05 1.358870e+05 1.358870e+05 1.374649e+05 1.380824e+05 1.380824e+05 1.380824e+05 1.415311e+05 1.081801e+05 1.085516e+05 1.085516e+05 1.085516e+05 1.089420e+05 1.094996e+05 1.098464e+05 1.149644e+05 1.093441e+05 1.099530e+05 1.102267e+05 1.100773e+05 1.108236e+05 1.105416e+05 1.098159e+05 1.086552e+05 1.093056e+05 1.087679e+05 1.087679e+05 1.083516e+05 1.083516e+05 1.093433e+05 1.087416e+05 1.081993e+05 1.080372e+05 1.292862e+05 1.308410e+05 1.371502e+05 1.430460e+05 1.452652e+05 1.452442e+05 1.452140e+05 1.452303e+05 1.451556e+05 1.451229e+05 1.450513e+05 1.449717e+05 1.448961e+05 1.448212e+05 1.447108e+05 1.059231e+05 1.059231e+05 1.070775e+05 1.070775e+05 1.073503e+05 1.077674e+05 1.080524e+05 1.080524e+05 1.080524e+05 1.080775e+05 1.076704e+05 1.076704e+05 1.069971e+05 1.069971e+05 1.069971e+05 1.107333e+05 1.107333e+05 1.107333e+05 1.110714e+05 1.110714e+05 1.067706e+05 1.067706e+05 1.067706e+05 1.071476e+05 1.059231e+05 1.058956e+05 1.058956e+05 1.080144e+05 1.090101e+05 1.090101e+05 1.440414e+05 1.440414e+05 1.440414e+05 1.446554e+05 1.446554e+05 1.069625e+05 1.075488e+05 1.075488e+05 1.443275e+05 1.443275e+05 1.439946e+05 1.340261e+05 1.340261e+05 1.340261e+05 1.276413e+05 1.276413e+05 1.276413e+05 1.259863e+05 1.259863e+05 1.084236e+05 1.407468e+05 1.407468e+05 1.407468e+05 1.403386e+05 1.447718e+05 1.447718e+05 1.447718e+05 1.445545e+05 1.441278e+05 1.426909e+05 1.426909e+05 1.426909e+05 1.447910e+05 1.440787e+05 1.440787e+05 1.440787e+05 1.443204e+05 1.307664e+05 1.324565e+05 1.307664e+05 1.307664e+05 1.117400e+05 1.117400e+05 1.056885e+05 1.349221e+05 1.349221e+05 1.447983e+05 1.448212e+05 1.446996e+05 1.446996e+05 1.443204e+05 1.430318e+05 1.423258e+05 1.441212e+05 1.437970e+05 1.431091e+05 1.431091e+05 1.431441e+05 1.425881e+05 1.432398e+05 1.431441e+05 1.427206e+05 1.415567e+05 1.415567e+05 1.418186e+05 1.418186e+05 1.422326e+05 1.413051e+05 1.412103e+05 1.406348e+05 1.406348e+05 1.400246e+05 1.405959e+05 1.390999e+05 1.374157e+05 1.374157e+05 1.324565e+05 1.287149e+05 1.287149e+05 1.270530e+05 1.270530e+05 1.256444e+05 1.245495e+05 1.209338e+05 1.097202e+05 1.056885e+05 1.056885e+05 1.088002e+05 1.088002e+05 1.088002e+05 1.086646e+05 1.074672e+05 1.091092e+05 1.091092e+05 1.091092e+05 1.090493e+05 1.102096e+05 1.102096e+05 1.102096e+05 1.100471e+05 1.097774e+05 1.136779e+05 1.136779e+05 1.136779e+05 1.142384e+05 1.182333e+05 1.182333e+05 1.182333e+05 1.180058e+05 1.171353e+05 1.145390e+05 1.145390e+05 1.139942e+05 1.231358e+05 1.231358e+05 1.231358e+05 1.238375e+05 1.238375e+05 1.217027e+05 1.217027e+05 1.217027e+05 1.112209e+05 1.112209e+05 1.213638e+05 1.213638e+05 1.213638e+05 1.207175e+05 1.207175e+05 1.305252e+05 1.305252e+05 1.305252e+05 1.265588e+05 1.265588e+05 1.265588e+05 1.188458e+05 1.188458e+05 1.188458e+05 1.099980e+05 1.261830e+05 1.255034e+05 1.210875e+05 1.203280e+05 1.302663e+05 1.271895e+05 1.271895e+05 1.177176e+05 1.177176e+05 1.207848e+05 1.195352e+05 1.243474e+05 1.243474e+05 1.243474e+05 1.303561e+05 1.349221e+05 1.210726e+05 1.161833e+05 1.161833e+05 1.161833e+05 1.237900e+05 1.194698e+05 1.163675e+05 1.147160e+05 1.131212e+05 1.175531e+05 1.131273e+05 1.126527e+05 1.123696e+05 1.123696e+05 1.080753e+05 1.355113e+05 1.355113e+05 1.258974e+05 1.156822e+05 1.156822e+05 1.238145e+05 1.386064e+05 1.139733e+05 1.139733e+05 1.116043e+05 1.116043e+05 1.116043e+05 1.221380e+05 1.274399e+05 1.118414e+05 1.135575e+05 1.117241e+05 1.107451e+05 1.107048e+05 1.107048e+05 1.107048e+05 1.098169e+05 1.098169e+05 1.102356e+05 1.101018e+05 1.101018e+05 1.094323e+05 1.093426e+05 1.084236e+05 1.089610e+05 1.089610e+05 1.079463e+05 1.082334e+05 1.268112e+05 1.341911e+05 1.341911e+05 1.376487e+05 1.376487e+05 1.313258e+05 1.075234e+05 1.166269e+05 1.253490e+05 1.278319e+05 1.283870e+05 1.303285e+05 1.303285e+05 1.325343e+05 1.325343e+05 1.325343e+05 1.344190e+05 1.358897e+05 1.369892e+05 1.383376e+05 1.383376e+05 1.384171e+05 1.419860e+05 1.118154e+05 1.130804e+05 1.296873e+05 1.391379e+05 1.138010e+05 1.146520e+05 1.115000e+05 1.107200e+05 1.120967e+05 1.108684e+05 1.094828e+05 1.129192e+05 1.096480e+05 1.096480e+05 1.092937e+05 1.092211e+05 1.084649e+05 1.084390e+05 1.084390e+05 1.083218e+05 1.086950e+05 1.087490e+05 1.284159e+05 1.316447e+05 1.352414e+05 1.396301e+05 1.352444e+05 1.365822e+05 1.320587e+05 1.389991e+05 1.365081e+05 1.082163e+05 1.070775e+05 1.452652e+05 1.452639e+05 1.452841e+05 1.452102e+05 1.451322e+05 1.450831e+05 1.450021e+05 1.449403e+05 1.448639e+05 1.448043e+05 1.446979e+05 1.445833e+05 1.444339e+05 1.442902e+05 1.441117e+05 1.439914e+05 1.438488e+05 1.436721e+05 1.434609e+05 1.432591e+05 1.430840e+05 1.428286e+05 1.426324e+05 1.424203e+05 1.422207e+05 1.420298e+05 1.417370e+05 1.414787e+05 1.411924e+05 1.408354e+05 1.404829e+05 1.402560e+05 1.399141e+05 1.396641e+05 1.393512e+05 1.389749e+05 1.386279e+05 1.383262e+05 1.378764e+05 1.374571e+05 1.370932e+05 1.367035e+05 1.363410e+05 1.359108e+05 1.355387e+05 1.351176e+05 1.346863e+05 1.342324e+05 1.337744e+05 1.333060e+05 1.328901e+05 1.324113e+05 1.319754e+05 1.313994e+05 1.309076e+05 1.303841e+05 1.299263e+05 1.294722e+05 1.289414e+05 1.284443e+05 1.279561e+05 1.274587e+05 1.268115e+05 1.262991e+05 1.256617e+05 1.251526e+05 1.245310e+05 1.239919e+05 1.234021e+05 1.228794e+05 1.222354e+05 1.216264e+05 1.210238e+05 1.204031e+05 1.199068e+05 1.193382e+05 1.187559e+05 1.181554e+05 1.175040e+05 1.168403e+05 1.162848e+05 1.156869e+05 1.150185e+05 1.144239e+05 1.138086e+05 1.131874e+05 1.124862e+05 1.118447e+05 1.112703e+05 1.106737e+05 1.100603e+05 1.093317e+05 1.087631e+05 1.080135e+05 1.074214e+05 1.067631e+05 1.060653e+05 1.054498e+05 1.048320e+05 1.041990e+05 1.036049e+05 1.029506e+05 1.023420e+05 1.016784e+05 1.010780e+05 1.003516e+05 9.971225e+04 9.905545e+04 9.842195e+04 9.778409e+04 9.720711e+04 9.649976e+04 9.591250e+04 9.528260e+04 9.470779e+04 9.410627e+04 9.341966e+04 9.282975e+04 9.225386e+04 9.170724e+04 9.102151e+04 9.045649e+04 8.976635e+04 8.976635e+04 1.036803e+05 1.036803e+05 1.068116e+05 1.070758e+05 1.073489e+05 1.077730e+05 1.081113e+05 1.081113e+05 1.081563e+05 1.083218e+05 1.084649e+05 1.084649e+05 1.089159e+05 1.089159e+05 1.094828e+05 1.097774e+05 1.098968e+05 1.102874e+05 1.107200e+05 1.118154e+05 1.118154e+05 1.130804e+05 1.130804e+05 1.138010e+05 1.152890e+05 1.156822e+05 1.166269e+05 1.170937e+05 1.184666e+05 1.194268e+05 1.203280e+05 1.217908e+05 1.222640e+05 1.238375e+05 1.254506e+05 1.267199e+05 1.278319e+05 1.278319e+05 1.288715e+05 1.310491e+05 1.310491e+05 1.333189e+05 1.340078e+05 1.340078e+05 1.355113e+05 1.369892e+05 1.369892e+05 1.383376e+05 1.391379e+05 1.403377e+05 1.403377e+05 1.411165e+05 1.423258e+05 1.430318e+05 1.441928e+05 1.445876e+05 1.034882e+05 1.127763e+05 1.127763e+05 1.127763e+05 1.133594e+05 1.096388e+05 1.096388e+05 1.096388e+05 1.103663e+05 1.103663e+05 1.142771e+05 1.142771e+05 1.142771e+05 1.144846e+05 1.140961e+05 1.022077e+05 1.108188e+05 1.108188e+05 1.102638e+05 1.129743e+05 1.129743e+05 1.129743e+05 1.125387e+05 1.121500e+05 1.265654e+05 1.265654e+05 1.265654e+05 1.259907e+05 1.056464e+05 1.056464e+05 1.056464e+05 1.053160e+05 1.049689e+05 1.049689e+05 1.121308e+05 1.121308e+05 1.096775e+05 1.092675e+05 1.034882e+05 1.034882e+05 1.073794e+05 1.073794e+05 1.073794e+05 1.071392e+05 1.066458e+05 1.066458e+05 1.070047e+05 1.108902e+05 1.108902e+05 1.108902e+05 1.109631e+05 1.102931e+05 1.118626e+05 1.118122e+05 1.069269e+05 1.069269e+05 1.069269e+05 1.060777e+05 9.929792e+04 9.709388e+04 9.525045e+04 9.709388e+04 1.231600e+05 1.231600e+05 1.231600e+05 1.277575e+05 1.277575e+05 1.277575e+05 1.266296e+05 9.238018e+04 9.158627e+04 9.238018e+04 9.238018e+04 1.208330e+05 1.208330e+05 1.208330e+05 1.208220e+05 1.314390e+05 1.314390e+05 1.314390e+05 1.310953e+05 1.362240e+05 1.362240e+05 1.362240e+05 1.352314e+05 1.352314e+05 9.553443e+04 9.553443e+04 9.553443e+04 9.514831e+04 1.009770e+05 1.009770e+05 1.009770e+05 1.001423e+05 1.001423e+05 1.410496e+05 1.410496e+05 1.410496e+05 1.414403e+05 1.134454e+05 1.134454e+05 1.134454e+05 1.135064e+05 1.135064e+05 8.938875e+04 8.979687e+04 1.368712e+05 1.368712e+05 1.368712e+05 1.365908e+05 1.396704e+05 1.396704e+05 1.396704e+05 1.402135e+05 1.402135e+05 1.180687e+05 1.180687e+05 1.180687e+05 1.178795e+05 1.382663e+05 1.382663e+05 1.382663e+05 1.378753e+05 9.528260e+04 1.263904e+05 1.263904e+05 1.263904e+05 1.204981e+05 1.204981e+05 1.204981e+05 1.201503e+05 1.148743e+05 1.148743e+05 1.148743e+05 1.146427e+05 1.054498e+05 1.026462e+05 1.026462e+05 1.026462e+05 1.023723e+05 1.108120e+05 1.108120e+05 1.108120e+05 1.108923e+05 1.108923e+05 8.979687e+04 8.979687e+04 8.938875e+04 1.362763e+05 1.362763e+05 1.362763e+05 1.373623e+05 1.373623e+05 1.134121e+05 1.140035e+05 1.140035e+05 1.309159e+05 1.309159e+05 1.309159e+05 1.320245e+05 1.320245e+05 1.296142e+05 1.296142e+05 1.296142e+05 1.299935e+05 9.597246e+04 9.505684e+04 9.597246e+04 9.597246e+04 9.647819e+04 1.102240e+05 1.102240e+05 1.102240e+05 1.109526e+05 1.120313e+05 1.131959e+05 1.131959e+05 1.050060e+05 1.050060e+05 1.034928e+05 1.034928e+05 1.148122e+05 1.148122e+05 1.148122e+05 1.163479e+05 1.163479e+05 1.042836e+05 1.042836e+05 1.042836e+05 1.042860e+05 1.036335e+05 1.086092e+05 1.070614e+05 1.213225e+05 1.213225e+05 1.213225e+05 1.208476e+05 1.254517e+05 1.254517e+05 1.254517e+05 1.247520e+05 1.156093e+05 1.156093e+05 1.156093e+05 1.295523e+05 1.295523e+05 1.295523e+05 1.050154e+05 1.050154e+05 1.050154e+05 1.334540e+05 1.334540e+05 1.334540e+05 9.598420e+04 9.598420e+04 9.598420e+04 9.594056e+04 9.525848e+04 1.056169e+05 1.056169e+05 1.056169e+05 9.729740e+04 9.729740e+04 9.744093e+04 1.178449e+05 1.178449e+05 1.178449e+05 1.185775e+05 1.080830e+05 1.080830e+05 1.080830e+05 1.079933e+05 1.041349e+05 1.041349e+05 1.397368e+05 1.397368e+05 1.397368e+05 1.390937e+05 9.224570e+04 9.224570e+04 9.224570e+04 9.226750e+04 9.890323e+04 9.890323e+04 9.890323e+04 9.906400e+04 1.364032e+05 1.364032e+05 1.364032e+05 1.221593e+05 1.221593e+05 1.221593e+05 1.223727e+05 1.094742e+05 1.094742e+05 1.094742e+05 1.095582e+05 1.089940e+05 1.089940e+05 1.089940e+05 1.087958e+05 1.146527e+05 1.146527e+05 1.146527e+05 1.151104e+05 