<?xml version="1.0"?>
 <VTKFile type="UnstructuredGrid" version="1.0" byte_order="LittleEndian" header_type="UInt64">
  <UnstructuredGrid>
    <FieldData>
     <DataArray type="Float64" Name="TimeValue" NumberOfTuples="1" format="ascii">
0.00018
     </DataArray>
    </FieldData>
   <Piece NumberOfPoints="3632" NumberOfCells="3379">
    <PointData>
     <DataArray type="Float64" Name="pointP" format="ascii">
1.446280e+05 1.446280e+05 1.444962e+05 1.442949e+05 1.442005e+05 1.440845e+05 1.438966e+05 1.436773e+05 1.434981e+05 1.433101e+05 1.431065e+05 1.428963e+05 1.426748e+05 1.424429e+05 1.422441e+05 1.419046e+05 1.416829e+05 1.414709e+05 1.411766e+05 1.408864e+05 1.406282e+05 1.403168e+05 1.400048e+05 1.396753e+05 1.393332e+05 1.389429e+05 1.386085e+05 1.382921e+05 1.379323e+05 1.375056e+05 1.371748e+05 1.367591e+05 1.363791e+05 1.359108e+05 1.354283e+05 1.351045e+05 1.346844e+05 1.342420e+05 1.337231e+05 1.333135e+05 1.328596e+05 1.323781e+05 1.319436e+05 1.314121e+05 1.309006e+05 1.304406e+05 1.299778e+05 1.294847e+05 1.288488e+05 1.284040e+05 1.279203e+05 1.274006e+05 1.269297e+05 1.263665e+05 1.256446e+05 1.250792e+05 1.244412e+05 1.239415e+05 1.233963e+05 1.228365e+05 1.222890e+05 1.217281e+05 1.211037e+05 1.205518e+05 1.199834e+05 1.193626e+05 1.186771e+05 1.181181e+05 1.175443e+05 1.169617e+05 1.163002e+05 1.157009e+05 1.150943e+05 1.144940e+05 1.138213e+05 1.132285e+05 1.125607e+05 1.119241e+05 1.112730e+05 1.107053e+05 1.099746e+05 1.093115e+05 1.086646e+05 1.079931e+05 1.073921e+05 1.067712e+05 1.061486e+05 1.055209e+05 1.048146e+05 1.041521e+05 1.035151e+05 1.028705e+05 1.022642e+05 1.016274e+05 1.009818e+05 1.003999e+05 9.972619e+04 9.909933e+04 9.849178e+04 9.773605e+04 9.713560e+04 9.652362e+04 9.596510e+04 9.524804e+04 9.464280e+04 9.404572e+04 9.344288e+04 9.279705e+04 9.219472e+04 9.161815e+04 9.104337e+04 9.045573e+04 8.987549e+04 8.919710e+04 8.860175e+04 8.793989e+04 8.735326e+04 8.681685e+04 8.622438e+04 8.564854e+04 8.511593e+04 8.456564e+04 8.399428e+04 8.343814e+04 8.290715e+04 8.232848e+04 8.185138e+04 8.128501e+04 8.073417e+04 8.025305e+04 7.977879e+04 7.914343e+04 7.869632e+04 7.822859e+04 7.781714e+04 7.727943e+04 7.680295e+04 7.640971e+04 7.587383e+04 7.548652e+04 7.508195e+04 7.454903e+04 7.415838e+04 7.372807e+04 7.328102e+04 7.291026e+04 7.252379e+04 7.210922e+04 7.170397e+04 7.140413e+04 7.106761e+04 7.064175e+04 7.028190e+04 6.995791e+04 6.959474e+04 6.929441e+04 6.902933e+04 6.860766e+04 6.833503e+04 6.804234e+04 6.778505e+04 6.747341e+04 6.723307e+04 6.695894e+04 6.670937e+04 6.650415e+04 6.630412e+04 6.611920e+04 6.591787e+04 6.576029e+04 6.549398e+04 6.532044e+04 6.514956e+04 6.500677e+04 6.489180e+04 6.471394e+04 6.459842e+04 6.447480e+04 6.433966e+04 6.425200e+04 6.419271e+04 1.025694e+05 1.025694e+05 1.025694e+05 1.042061e+05 1.042061e+05 1.042061e+05 1.046003e+05 1.042744e+05 1.063628e+05 1.052265e+05 1.086349e+05 1.086349e+05 1.086349e+05 1.085737e+05 9.656400e+04 9.656400e+04 9.656400e+04 9.649438e+04 9.715457e+04 1.316146e+05 1.316146e+05 1.316146e+05 1.315282e+05 1.311845e+05 1.311845e+05 1.311845e+05 1.303696e+05 9.938392e+04 9.938392e+04 9.938392e+04 1.000267e+05 1.005708e+05 1.005469e+05 7.879059e+04 7.879059e+04 7.879059e+04 7.782112e+04 7.782112e+04 1.302781e+05 1.302781e+05 1.302781e+05 1.297161e+05 7.299014e+04 7.299014e+04 7.299014e+04 7.209858e+04 7.209858e+04 1.426319e+05 1.426319e+05 1.426319e+05 1.136722e+05 1.136722e+05 1.136722e+05 1.140607e+05 1.075907e+05 1.075907e+05 1.075907e+05 1.279315e+05 1.279315e+05 1.279315e+05 1.280351e+05 8.021757e+04 8.021757e+04 8.028074e+04 8.028074e+04 1.159242e+05 1.159242e+05 1.164062e+05 1.288693e+05 1.288693e+05 1.288693e+05 1.294739e+05 1.294739e+05 6.867821e+04 6.867821e+04 6.867821e+04 6.950530e+04 6.950530e+04 9.908797e+04 9.908797e+04 9.908797e+04 9.814409e+04 9.814409e+04 1.325866e+05 1.325866e+05 1.167736e+05 1.167736e+05 1.167736e+05 1.169206e+05 1.077083e+05 1.077083e+05 1.077083e+05 1.074435e+05 1.075030e+05 1.181183e+05 1.181183e+05 1.181183e+05 1.146341e+05 1.146341e+05 1.148778e+05 1.351045e+05 1.353374e+05 1.353374e+05 6.500677e+04 6.551146e+04 6.551146e+04 1.070635e+05 8.290715e+04 8.332882e+04 1.076235e+05 1.039874e+05 1.039874e+05 1.039874e+05 1.045964e+05 9.870871e+04 1.039467e+05 1.039467e+05 1.039467e+05 1.050108e+05 1.050108e+05 9.552674e+04 9.552674e+04 9.552674e+04 9.641500e+04 8.830191e+04 8.830191e+04 8.830191e+04 8.812797e+04 1.304971e+05 1.302778e+05 1.293125e+05 1.325662e+05 1.325662e+05 1.054580e+05 1.054580e+05 1.054580e+05 1.060525e+05 1.205452e+05 1.205452e+05 1.205452e+05 1.212808e+05 1.212808e+05 1.205925e+05 8.410001e+04 8.410001e+04 8.410001e+04 8.369362e+04 8.823354e+04 8.823354e+04 8.823354e+04 8.902245e+04 8.948294e+04 1.155553e+05 1.155553e+05 1.155553e+05 1.156228e+05 7.131855e+04 6.929668e+04 9.471233e+04 9.471233e+04 9.471233e+04 9.544448e+04 7.961693e+04 7.961693e+04 7.961693e+04 7.988273e+04 1.253916e+05 1.253916e+05 1.253916e+05 1.263122e+05 1.263122e+05 7.542928e+04 7.542928e+04 7.542928e+04 7.582196e+04 1.250853e+05 1.250853e+05 1.250853e+05 1.248094e+05 1.303757e+05 1.303757e+05 1.303757e+05 1.303468e+05 8.411296e+04 8.411296e+04 8.404863e+04 1.082034e+05 1.082034e+05 1.098902e+05 1.098902e+05 1.098902e+05 1.046814e+05 1.046814e+05 1.046814e+05 1.043939e+05 6.530466e+04 6.530466e+04 6.530466e+04 6.521667e+04 6.521667e+04 1.391332e+05 1.391332e+05 1.391332e+05 1.387509e+05 1.387509e+05 1.086378e+05 1.240630e+05 1.240630e+05 1.244499e+05 6.476272e+04 6.476272e+04 6.476272e+04 6.469801e+04 6.993236e+04 6.993236e+04 7.034403e+04 7.034403e+04 1.333671e+05 1.333671e+05 1.336707e+05 1.288114e+05 1.288114e+05 6.836390e+04 6.836390e+04 6.875517e+04 6.875517e+04 1.268079e+05 1.268079e+05 1.268079e+05 1.265301e+05 1.072186e+05 1.068495e+05 1.155664e+05 1.155664e+05 1.155664e+05 1.151748e+05 1.195319e+05 1.195319e+05 1.195319e+05 1.188234e+05 1.188234e+05 6.706762e+04 6.706762e+04 6.706762e+04 6.706786e+04 6.706786e+04 1.171166e+05 1.177434e+05 1.420435e+05 1.420435e+05 1.420435e+05 1.419432e+05 7.131034e+04 7.131034e+04 7.131034e+04 7.057771e+04 7.057771e+04 7.138913e+04 7.165846e+04 1.090620e+05 1.090620e+05 1.090620e+05 1.084173e+05 1.084173e+05 1.011243e+05 1.013831e+05 1.013831e+05 8.072739e+04 8.072739e+04 8.072739e+04 8.103868e+04 8.103868e+04 8.406702e+04 8.406702e+04 8.406702e+04 8.352362e+04 8.352362e+04 7.412816e+04 7.412816e+04 7.500645e+04 7.500645e+04 1.083006e+05 1.083006e+05 1.076550e+05 7.602986e+04 7.602986e+04 7.585342e+04 7.585342e+04 8.328096e+04 8.328096e+04 8.328096e+04 8.462313e+04 9.622093e+04 9.622093e+04 9.622093e+04 9.486660e+04 9.486660e+04 1.276849e+05 1.300350e+05 1.242112e+05 1.045142e+05 1.045142e+05 1.045142e+05 1.054394e+05 1.054394e+05 1.075857e+05 1.075857e+05 1.080508e+05 1.026843e+05 1.026843e+05 1.025265e+05 1.016371e+05 1.092121e+05 1.092121e+05 1.092121e+05 1.083496e+05 1.083496e+05 1.083496e+05 1.122490e+05 1.122490e+05 1.122490e+05 9.619086e+04 9.693610e+04 1.057590e+05 1.124930e+05 1.124930e+05 1.124930e+05 1.115597e+05 1.158230e+05 1.158230e+05 1.158230e+05 1.158459e+05 1.158459e+05 1.158459e+05 1.152758e+05 8.676603e+04 8.676603e+04 8.676603e+04 9.667870e+04 9.667870e+04 9.667870e+04 1.107659e+05 1.107659e+05 1.107659e+05 1.256560e+05 1.256560e+05 1.257755e+05 8.139157e+04 8.713905e+04 8.713905e+04 1.319418e+05 1.319418e+05 1.319418e+05 1.331724e+05 1.331724e+05 1.052690e+05 1.052690e+05 6.738806e+04 6.826247e+04 6.929668e+04 1.365459e+05 1.365459e+05 1.365459e+05 1.359968e+05 8.971679e+04 8.971679e+04 8.971679e+04 1.070881e+05 1.070054e+05 1.065626e+05 9.617609e+04 9.617609e+04 9.617609e+04 7.991867e+04 7.991867e+04 7.991867e+04 7.974530e+04 7.933688e+04 1.089441e+05 1.089441e+05 1.089441e+05 1.402037e+05 1.402037e+05 1.402037e+05 1.401751e+05 1.201004e+05 1.201004e+05 1.201004e+05 1.198291e+05 1.405419e+05 1.405419e+05 1.405419e+05 1.155212e+05 1.001000e+05 1.001000e+05 1.020518e+05 1.020518e+05 1.020518e+05 1.018339e+05 1.020045e+05 6.594835e+04 6.594835e+04 6.628506e+04 6.508737e+04 6.499051e+04 1.277276e+05 1.277276e+05 8.318781e+04 8.318781e+04 8.318781e+04 8.352159e+04 6.718610e+04 6.718610e+04 6.718610e+04 6.754094e+04 1.205518e+05 1.205635e+05 1.205635e+05 9.398416e+04 9.398416e+04 9.398416e+04 9.380951e+04 6.965370e+04 9.742192e+04 9.742192e+04 9.745422e+04 1.303850e+05 1.303850e+05 1.303850e+05 1.394671e+05 1.394671e+05 1.376143e+05 1.376143e+05 1.376143e+05 1.380115e+05 1.412168e+05 1.412168e+05 1.412168e+05 1.409702e+05 1.409702e+05 1.411290e+05 1.353418e+05 1.353418e+05 1.013282e+05 7.814990e+04 7.814990e+04 7.861008e+04 9.434836e+04 1.438321e+05 1.432862e+05 1.438321e+05 1.438321e+05 1.229922e+05 1.229922e+05 1.229922e+05 1.223519e+05 1.223519e+05 1.311996e+05 1.311996e+05 1.315551e+05 1.315551e+05 1.269179e+05 1.269179e+05 1.269179e+05 1.278677e+05 1.278677e+05 1.050958e+05 1.050958e+05 1.050958e+05 1.056781e+05 1.056781e+05 1.373511e+05 1.373511e+05 1.373511e+05 1.359611e+05 1.359611e+05 1.170990e+05 1.170990e+05 1.170990e+05 1.068754e+05 7.133351e+04 7.133351e+04 7.133351e+04 7.282611e+04 7.282611e+04 7.930176e+04 7.930176e+04 7.930176e+04 8.108186e+04 8.108186e+04 8.906115e+04 8.906115e+04 8.906115e+04 9.072761e+04 9.072761e+04 1.322171e+05 1.322171e+05 1.322171e+05 1.082837e+05 1.082837e+05 1.082837e+05 1.090659e+05 1.090659e+05 9.435728e+04 9.650662e+04 8.964934e+04 8.964934e+04 8.964934e+04 8.867718e+04 1.072658e+05 1.072658e+05 1.069436e+05 1.017145e+05 1.017145e+05 1.016810e+05 1.016810e+05 1.025692e+05 1.032330e+05 1.127141e+05 1.103677e+05 1.127141e+05 1.127141e+05 1.063628e+05 1.063628e+05 1.038471e+05 1.159540e+05 1.167878e+05 1.355016e+05 1.355016e+05 1.355016e+05 1.349427e+05 1.352525e+05 9.351033e+04 9.351033e+04 9.351033e+04 9.287293e+04 7.958490e+04 8.214110e+04 6.586384e+04 6.586384e+04 6.586384e+04 6.615538e+04 1.248996e+05 1.250676e+05 1.250236e+05 1.019909e+05 1.019909e+05 1.017944e+05 6.749832e+04 6.905027e+04 6.905027e+04 6.929715e+04 6.971882e+04 7.906718e+04 7.926760e+04 7.928371e+04 9.212062e+04 9.212062e+04 9.212062e+04 9.196037e+04 7.222469e+04 7.222469e+04 7.222469e+04 7.178899e+04 1.024950e+05 7.252379e+04 7.304494e+04 7.304494e+04 1.170408e+05 1.170408e+05 1.170408e+05 9.147279e+04 1.368363e+05 1.368363e+05 9.533879e+04 9.533879e+04 9.533879e+04 1.211458e+05 6.795639e+04 6.795639e+04 9.337620e+04 9.041404e+04 9.041404e+04 9.041404e+04 9.022870e+04 8.062204e+04 6.564538e+04 6.564538e+04 6.582173e+04 6.902933e+04 1.037017e+05 1.037017e+05 7.491290e+04 7.491290e+04 7.491290e+04 7.452378e+04 1.338790e+05 1.341414e+05 1.341414e+05 1.187775e+05 7.169513e+04 7.169513e+04 7.157493e+04 1.360868e+05 1.360868e+05 1.343321e+05 1.254529e+05 8.564854e+04 8.587247e+04 8.587247e+04 1.430413e+05 1.430413e+05 8.441530e+04 1.385951e+05 1.385951e+05 8.775536e+04 8.775536e+04 8.775536e+04 8.724226e+04 7.826292e+04 7.826292e+04 8.218633e+04 8.218633e+04 6.717362e+04 6.578486e+04 1.136600e+05 1.134187e+05 7.328102e+04 7.386432e+04 7.386432e+04 1.055209e+05 1.058159e+05 1.058159e+05 6.628083e+04 6.628083e+04 6.645856e+04 6.645856e+04 1.308166e+05 1.064214e+05 1.433759e+05 1.433759e+05 1.434833e+05 1.438218e+05 1.438218e+05 1.328596e+05 1.326669e+05 1.217108e+05 1.217108e+05 1.217108e+05 1.401829e+05 1.401829e+05 1.401829e+05 1.400492e+05 8.673428e+04 8.673428e+04 1.229935e+05 6.691632e+04 6.691632e+04 9.087163e+04 8.081206e+04 9.628711e+04 9.628711e+04 9.628711e+04 7.067263e+04 7.067263e+04 1.319436e+05 1.317708e+05 1.317708e+05 1.112730e+05 1.115473e+05 1.093115e+05 1.095771e+05 6.558247e+04 1.419510e+05 1.419510e+05 7.693037e+04 7.693037e+04 7.693037e+04 7.678866e+04 1.406060e+05 8.110403e+04 8.951858e+04 8.951858e+04 8.897911e+04 8.541250e+04 8.541250e+04 6.801496e+04 6.801496e+04 6.756843e+04 1.193626e+05 1.194461e+05 1.194461e+05 9.781262e+04 1.426225e+05 1.426225e+05 1.421437e+05 1.421437e+05 9.966928e+04 9.966928e+04 9.966928e+04 7.566267e+04 7.566267e+04 7.566267e+04 1.007342e+05 1.007342e+05 1.349722e+05 1.421925e+05 1.417769e+05 1.412011e+05 1.331706e+05 1.425180e+05 7.028351e+04 1.121307e+05 1.127525e+05 7.630902e+04 7.630902e+04 1.268665e+05 1.235856e+05 7.767115e+04 7.737221e+04 9.880619e+04 9.880619e+04 1.446280e+05 1.443547e+05 1.437468e+05 1.437468e+05 1.437468e+05 1.440396e+05 1.362615e+05 1.353981e+05 1.372017e+05 1.373913e+05 1.109816e+05 1.109816e+05 1.107406e+05 1.333004e+05 7.210545e+04 7.468013e+04 1.262306e+05 1.238359e+05 1.238359e+05 1.238359e+05 9.660271e+04 8.871765e+04 8.871765e+04 8.871765e+04 1.441925e+05 1.366797e+05 1.417867e+05 1.411230e+05 8.469970e+04 1.196779e+05 1.422646e+05 1.429599e+05 6.738223e+04 6.801898e+04 6.801898e+04 1.161856e+05 1.219005e+05 7.061072e+04 6.869629e+04 1.349890e+05 1.341393e+05 1.341393e+05 7.351085e+04 7.351085e+04 7.381381e+04 7.381381e+04 8.712101e+04 1.272752e+05 1.053053e+05 6.490550e+04 1.385417e+05 1.379060e+05 9.587178e+04 1.045424e+05 1.043434e+05 1.043434e+05 1.368882e+05 1.368882e+05 1.365890e+05 1.365890e+05 9.482293e+04 9.537149e+04 8.306871e+04 8.306871e+04 8.290562e+04 9.132961e+04 9.132961e+04 9.067522e+04 9.067522e+04 8.539811e+04 8.539811e+04 6.596470e+04 1.410837e+05 1.410837e+05 1.335894e+05 1.335894e+05 1.335894e+05 1.295520e+05 7.158757e+04 7.158757e+04 7.727982e+04 7.727982e+04 6.919782e+04 6.937345e+04 1.320549e+05 1.399571e+05 6.479959e+04 6.726283e+04 6.726283e+04 9.901431e+04 9.901431e+04 9.984392e+04 6.829458e+04 6.829458e+04 8.150177e+04 8.150177e+04 1.382873e+05 1.382873e+05 1.123339e+05 1.430777e+05 1.215142e+05 1.215142e+05 1.211189e+05 1.054382e+05 1.059137e+05 6.997280e+04 7.418768e+04 8.606370e+04 1.417083e+05 6.577846e+04 8.996726e+04 8.996726e+04 8.996726e+04 1.029318e+05 1.029318e+05 1.029318e+05 1.091880e+05 9.335140e+04 9.335140e+04 9.335140e+04 9.250295e+04 1.432704e+05 1.427648e+05 1.265213e+05 1.260748e+05 1.260748e+05 1.006274e+05 1.006274e+05 1.006274e+05 1.289371e+05 7.260015e+04 1.408487e+05 1.437139e+05 1.437139e+05 1.432480e+05 1.030688e+05 8.001198e+04 8.001198e+04 8.034370e+04 8.616255e+04 8.616255e+04 1.420366e+05 6.588858e+04 8.665435e+04 8.728292e+04 7.847050e+04 1.108453e+05 1.114913e+05 1.396968e+05 9.661213e+04 9.661213e+04 9.661213e+04 8.194075e+04 8.194075e+04 1.313606e+05 1.310149e+05 1.310149e+05 1.379635e+05 1.373465e+05 7.545472e+04 7.528406e+04 1.385365e+05 1.385365e+05 1.385365e+05 1.382421e+05 7.598398e+04 7.598398e+04 7.627186e+04 6.775858e+04 6.775858e+04 1.136550e+05 1.136550e+05 1.136550e+05 1.133960e+05 8.651213e+04 1.392969e+05 1.392969e+05 1.392969e+05 1.391672e+05 1.403822e+05 7.806775e+04 7.806775e+04 7.806153e+04 7.806153e+04 7.468620e+04 1.322568e+05 1.322568e+05 9.967853e+04 9.899915e+04 1.292017e+05 1.292017e+05 7.681738e+04 7.737615e+04 1.364950e+05 1.432862e+05 1.429408e+05 8.500633e+04 8.507664e+04 1.414825e+05 9.344211e+04 9.344211e+04 9.329499e+04 9.329499e+04 8.471636e+04 9.697820e+04 9.773156e+04 1.248483e+05 8.806961e+04 7.660580e+04 7.745583e+04 1.326215e+05 1.326215e+05 1.426697e+05 1.426697e+05 1.426697e+05 1.422817e+05 6.867121e+04 6.867121e+04 6.815352e+04 1.127356e+05 1.126494e+05 1.230020e+05 6.643456e+04 6.674816e+04 6.674816e+04 6.674816e+04 6.684774e+04 9.137028e+04 1.444962e+05 1.374936e+05 1.363752e+05 1.363752e+05 7.178117e+04 7.178117e+04 7.178117e+04 7.133631e+04 1.416969e+05 1.416969e+05 1.355165e+05 1.355165e+05 1.350671e+05 1.267468e+05 1.199479e+05 1.406187e+05 8.854736e+04 8.797322e+04 1.421631e+05 1.421659e+05 1.061876e+05 1.216219e+05 1.216219e+05 1.216219e+05 1.223882e+05 7.223843e+04 9.430320e+04 9.424269e+04 6.872389e+04 6.928305e+04 1.018808e+05 1.023300e+05 8.121582e+04 8.121582e+04 1.240029e+05 8.424785e+04 8.424785e+04 8.506125e+04 8.266670e+04 8.266670e+04 9.180970e+04 7.369003e+04 7.369003e+04 7.275626e+04 1.354530e+05 1.400501e+05 1.400501e+05 8.997690e+04 9.015259e+04 9.015259e+04 1.155272e+05 7.058050e+04 6.748629e+04 6.773638e+04 1.335756e+05 1.335756e+05 1.042897e+05 8.635179e+04 1.149019e+05 1.147674e+05 1.127108e+05 1.339865e+05 1.339865e+05 1.232300e+05 1.232300e+05 1.232300e+05 1.119511e+05 1.120650e+05 1.287309e+05 1.289063e+05 1.289063e+05 1.046220e+05 1.039432e+05 1.039432e+05 1.175768e+05 1.101536e+05 1.110268e+05 1.377284e+05 1.390374e+05 1.390374e+05 1.390374e+05 1.392970e+05 7.003016e+04 7.808268e+04 9.107937e+04 9.165247e+04 8.111212e+04 8.111212e+04 8.111212e+04 9.721204e+04 9.721204e+04 9.721204e+04 9.749461e+04 9.834526e+04 7.025717e+04 7.487871e+04 7.453618e+04 9.503665e+04 9.503665e+04 7.358811e+04 7.440118e+04 7.440425e+04 7.440425e+04 9.326373e+04 8.412011e+04 8.412011e+04 8.376930e+04 1.259214e+05 1.259214e+05 1.251411e+05 8.869438e+04 8.869438e+04 1.074487e+05 7.769456e+04 7.769456e+04 7.701367e+04 7.701367e+04 6.954505e+04 6.954505e+04 6.954505e+04 1.369201e+05 1.362674e+05 1.362674e+05 6.836760e+04 6.836760e+04 6.836760e+04 6.735179e+04 6.905209e+04 9.614852e+04 1.376024e+05 1.376024e+05 1.366518e+05 1.350724e+05 1.350724e+05 1.350724e+05 1.197492e+05 1.197492e+05 1.192535e+05 1.167463e+05 1.167463e+05 1.174812e+05 7.008834e+04 7.186991e+04 7.186991e+04 1.415159e+05 1.406366e+05 8.727663e+04 8.727663e+04 8.727663e+04 1.414496e+05 7.567174e+04 7.567174e+04 7.601345e+04 7.601345e+04 6.991439e+04 6.991439e+04 7.041668e+04 7.041668e+04 6.844107e+04 6.844107e+04 6.803456e+04 1.138365e+05 1.136762e+05 8.779220e+04 1.321865e+05 1.321865e+05 1.321865e+05 9.720235e+04 1.223942e+05 7.263752e+04 1.191408e+05 1.407065e+05 8.204189e+04 1.245353e+05 1.245353e+05 1.413119e+05 1.405911e+05 1.405911e+05 1.156253e+05 1.158313e+05 1.395088e+05 1.395088e+05 1.383139e+05 7.426875e+04 7.426875e+04 9.910533e+04 1.040176e+05 1.333536e+05 1.095304e+05 1.406811e+05 1.395423e+05 1.395423e+05 8.637176e+04 9.489704e+04 9.245515e+04 1.383226e+05 1.385540e+05 7.085152e+04 7.085152e+04 8.247174e+04 8.247174e+04 1.053320e+05 6.955567e+04 6.951132e+04 6.951132e+04 1.355258e+05 8.528766e+04 8.650922e+04 9.243985e+04 9.243985e+04 9.243985e+04 9.143866e+04 9.143866e+04 1.218118e+05 1.334037e+05 1.375359e+05 1.280370e+05 1.280370e+05 1.118566e+05 1.118566e+05 1.120663e+05 1.108078e+05 1.108078e+05 1.396204e+05 1.396204e+05 1.396204e+05 1.383640e+05 1.383640e+05 1.173355e+05 1.173355e+05 1.181868e+05 1.222256e+05 1.206398e+05 1.206398e+05 1.206398e+05 7.868912e+04 1.236843e+05 1.229917e+05 1.229917e+05 7.917583e+04 7.960465e+04 6.826247e+04 7.076971e+04 1.364717e+05 1.160266e+05 1.150228e+05 1.406366e+05 1.292191e+05 1.292191e+05 1.280483e+05 1.280483e+05 1.303499e+05 1.305793e+05 1.368770e+05 7.244837e+04 7.761292e+04 7.761292e+04 7.771463e+04 6.979259e+04 1.320430e+05 6.862423e+04 9.818087e+04 8.040373e+04 1.379737e+05 1.349614e+05 1.349614e+05 1.347006e+05 1.347006e+05 9.101939e+04 1.029348e+05 1.029348e+05 1.029348e+05 8.763896e+04 1.314800e+05 1.072050e+05 7.439362e+04 7.432572e+04 8.484082e+04 7.000243e+04 7.677827e+04 7.508322e+04 7.284641e+04 7.284641e+04 7.284641e+04 1.239950e+05 8.893368e+04 7.058180e+04 1.285795e+05 1.285795e+05 1.277540e+05 1.116204e+05 9.834167e+04 9.834167e+04 1.343095e+05 1.188453e+05 1.194545e+05 7.158475e+04 1.108913e+05 1.108913e+05 1.123297e+05 6.991341e+04 7.283126e+04 7.283126e+04 7.211734e+04 1.034689e+05 1.034689e+05 1.034689e+05 1.137783e+05 9.360202e+04 1.083369e+05 9.175396e+04 9.070741e+04 9.070741e+04 8.787149e+04 8.120498e+04 1.240828e+05 1.240828e+05 1.304950e+05 8.569111e+04 8.569111e+04 8.569111e+04 8.522557e+04 1.375863e+05 1.158594e+05 1.356582e+05 1.340822e+05 1.012132e+05 1.219266e+05 1.224292e+05 1.353133e+05 1.147317e+05 1.146756e+05 7.131855e+04 1.142539e+05 1.291714e+05 1.291714e+05 1.291714e+05 1.394177e+05 1.388171e+05 1.283277e+05 1.339788e+05 1.394177e+05 7.446693e+04 7.291129e+04 8.267238e+04 1.190865e+05 1.173235e+05 1.097033e+05 7.632819e+04 7.632819e+04 7.632819e+04 8.687034e+04 1.337395e+05 1.337395e+05 1.369248e+05 1.369248e+05 1.126468e+05 7.394884e+04 1.329762e+05 9.965838e+04 9.965838e+04 9.965838e+04 9.492145e+04 1.317818e+05 1.317818e+05 9.900250e+04 1.085073e+05 1.197138e+05 7.667455e+04 1.292375e+05 1.292375e+05 1.292375e+05 7.525376e+04 7.525376e+04 7.525376e+04 1.391013e+05 1.080705e+05 1.347949e+05 1.347949e+05 7.361517e+04 7.361517e+04 7.361517e+04 7.441745e+04 9.353243e+04 9.353243e+04 9.353243e+04 1.251901e+05 1.251901e+05 1.251901e+05 1.280281e+05 1.015421e+05 1.012923e+05 1.033082e+05 1.033082e+05 1.033082e+05 9.625142e+04 9.666503e+04 9.666503e+04 1.241325e+05 1.220589e+05 1.376142e+05 1.010017e+05 1.004442e+05 7.844992e+04 8.110806e+04 1.147675e+05 8.527837e+04 7.752475e+04 7.752475e+04 7.658744e+04 1.310182e+05 1.124753e+05 8.746048e+04 8.683504e+04 9.843496e+04 1.145951e+05 9.236778e+04 9.236778e+04 1.224742e+05 1.244940e+05 1.236916e+05 8.408367e+04 1.079055e+05 1.322337e+05 7.885820e+04 7.885820e+04 7.564918e+04 7.564918e+04 1.263229e+05 1.263229e+05 1.263229e+05 1.245392e+05 1.245392e+05 1.142693e+05 1.280290e+05 1.275956e+05 1.275956e+05 8.520164e+04 1.106581e+05 1.121324e+05 1.175448e+05 1.175448e+05 1.194255e+05 1.249976e+05 7.930320e+04 7.930320e+04 1.230686e+05 1.223088e+05 7.844992e+04 7.844992e+04 8.765468e+04 9.107941e+04 9.107941e+04 9.107941e+04 1.055167e+05 8.355295e+04 8.404438e+04 9.939940e+04 9.939940e+04 9.939940e+04 1.025894e+05 1.037975e+05 1.124957e+05 1.017635e+05 8.682836e+04 1.175917e+05 1.175917e+05 1.175917e+05 1.163914e+05 9.020676e+04 1.239767e+05 1.239767e+05 1.239767e+05 1.202357e+05 8.071348e+04 1.216995e+05 1.216995e+05 1.060213e+05 8.066362e+04 8.066362e+04 8.066362e+04 8.020632e+04 8.020632e+04 1.298188e+05 1.276924e+05 1.276924e+05 8.191436e+04 8.942073e+04 8.942073e+04 1.157742e+05 8.269527e+04 8.269527e+04 8.269527e+04 8.472357e+04 8.472357e+04 8.472357e+04 1.030674e+05 1.030674e+05 1.040681e+05 9.522994e+04 8.210604e+04 8.210604e+04 1.025125e+05 1.090855e+05 1.090855e+05 1.074684e+05 1.074684e+05 1.210138e+05 9.273478e+04 9.317672e+04 9.317672e+04 9.200600e+04 9.200600e+04 9.909755e+04 9.909755e+04 1.011696e+05 1.136491e+05 1.136491e+05 1.121456e+05 1.121456e+05 9.598479e+04 1.142421e+05 1.248239e+05 1.241811e+05 1.241811e+05 1.126888e+05 1.066289e+05 9.836502e+04 1.224144e+05 1.224144e+05 1.141359e+05 1.242112e+05 1.242112e+05 8.303584e+04 8.303584e+04 1.162717e+05 1.203518e+05 1.203518e+05 1.203518e+05 1.184554e+05 1.184554e+05 1.216259e+05 1.093901e+05 1.093901e+05 1.188234e+05 1.188234e+05 1.173064e+05 9.839157e+04 1.057046e+05 8.878542e+04 8.787368e+04 1.213424e+05 1.213424e+05 9.015958e+04 9.015958e+04 1.029423e+05 1.029423e+05 8.449348e+04 1.074177e+05 1.074177e+05 1.058205e+05 9.573384e+04 9.573384e+04 1.155928e+05 1.155928e+05 1.139695e+05 1.098661e+05 1.098661e+05 9.921928e+04 9.921928e+04 1.046623e+05 1.046623e+05 1.017416e+05 1.020008e+05 1.020008e+05 9.241246e+04 9.219849e+04 9.809259e+04 1.091158e+05 1.092773e+05 1.194349e+05 1.189681e+05 1.155548e+05 1.155548e+05 1.192470e+05 9.500890e+04 9.500890e+04 9.298506e+04 1.115483e+05 1.189688e+05 1.207172e+05 1.207172e+05 1.016007e+05 1.016007e+05 1.160836e+05 1.186335e+05 9.849241e+04 9.849241e+04 1.145903e+05 1.145903e+05 9.100014e+04 9.430102e+04 9.430102e+04 9.430102e+04 9.266628e+04 9.266628e+04 1.142023e+05 1.127049e+05 1.101178e+05 1.101178e+05 1.121202e+05 1.121202e+05 1.140649e+05 9.738072e+04 1.175929e+05 1.150820e+05 1.067523e+05 1.043794e+05 1.092184e+05 1.065177e+05 1.117195e+05 1.002090e+05 1.054216e+05 1.081893e+05 1.068214e+05 1.073891e+05 1.110551e+05 1.103677e+05 1.023486e+05 1.023486e+05 1.067066e+05 1.060173e+05 1.090344e+05 1.012179e+05 1.018861e+05 1.074135e+05 1.074135e+05 1.072577e+05 1.072577e+05 1.035713e+05 1.035713e+05 1.062869e+05 1.051429e+05 1.051429e+05 1.051429e+05 1.051198e+05 1.051198e+05 9.782106e+04 9.782106e+04 9.782106e+04 9.323741e+04 9.323741e+04 8.644723e+04 8.740859e+04 1.003795e+05 8.644723e+04 8.644723e+04 8.546031e+04 9.101937e+04 9.389702e+04 9.533016e+04 9.592346e+04 9.606282e+04 9.831069e+04 9.850122e+04 9.993182e+04 9.993182e+04 1.032925e+05 8.467863e+04 1.003795e+05 1.187441e+05 1.128638e+05 1.062356e+05 1.186951e+05 1.186951e+05 1.158980e+05 1.156094e+05 1.158980e+05 1.035613e+05 1.142885e+05 1.047098e+05 1.010127e+05 1.013001e+05 1.013001e+05 1.053468e+05 1.446280e+05 1.446280e+05 1.444962e+05 1.442949e+05 1.442005e+05 1.440845e+05 1.438966e+05 1.436773e+05 1.434981e+05 1.433101e+05 1.431065e+05 1.428963e+05 1.426748e+05 1.424429e+05 1.422441e+05 1.419046e+05 1.416829e+05 1.414709e+05 1.411766e+05 1.408864e+05 1.406282e+05 1.403168e+05 1.400048e+05 1.396753e+05 1.393332e+05 1.389429e+05 1.386085e+05 1.382921e+05 1.379323e+05 1.375056e+05 1.371748e+05 1.367591e+05 1.363791e+05 1.359108e+05 1.354283e+05 1.351045e+05 1.346844e+05 1.342420e+05 1.337231e+05 1.333135e+05 1.328596e+05 1.323781e+05 1.319436e+05 1.314121e+05 1.309006e+05 1.304406e+05 1.299778e+05 1.294847e+05 1.288488e+05 1.284040e+05 1.279203e+05 1.274006e+05 1.269297e+05 1.263665e+05 1.256446e+05 1.250792e+05 1.244412e+05 1.239415e+05 1.233963e+05 1.228365e+05 1.222890e+05 1.217281e+05 1.211037e+05 1.205518e+05 1.199834e+05 1.193626e+05 1.186771e+05 1.181181e+05 1.175443e+05 1.169617e+05 1.163002e+05 1.157009e+05 1.150943e+05 1.144940e+05 1.138213e+05 1.132285e+05 1.125607e+05 1.119241e+05 1.112730e+05 1.107053e+05 1.099746e+05 1.093115e+05 1.086646e+05 1.079931e+05 1.073921e+05 1.067712e+05 1.061486e+05 1.055209e+05 1.048146e+05 1.041521e+05 1.035151e+05 1.028705e+05 1.022642e+05 1.016274e+05 1.009818e+05 1.003999e+05 9.972619e+04 9.909933e+04 9.849178e+04 9.773605e+04 9.713560e+04 9.652362e+04 9.596510e+04 9.524804e+04 9.464280e+04 9.404572e+04 9.344288e+04 9.279705e+04 9.219472e+04 9.161815e+04 9.104337e+04 9.045573e+04 8.987549e+04 8.919710e+04 8.860175e+04 8.793989e+04 8.735326e+04 8.681685e+04 8.622438e+04 8.564854e+04 8.511593e+04 8.456564e+04 8.399428e+04 8.343814e+04 8.290715e+04 8.232848e+04 8.185138e+04 8.128501e+04 8.073417e+04 8.025305e+04 7.977879e+04 7.914343e+04 7.869632e+04 7.822859e+04 7.781714e+04 7.727943e+04 7.680295e+04 7.640971e+04 7.587383e+04 7.548652e+04 7.508195e+04 7.454903e+04 7.415838e+04 7.372807e+04 7.328102e+04 7.291026e+04 7.252379e+04 7.210922e+04 7.170397e+04 7.140413e+04 7.106761e+04 7.064175e+04 7.028190e+04 6.995791e+04 6.959474e+04 6.929441e+04 6.902933e+04 6.860766e+04 6.833503e+04 6.804234e+04 6.778505e+04 6.747341e+04 6.723307e+04 6.695894e+04 6.670937e+04 6.650415e+04 6.630412e+04 6.611920e+04 6.591787e+04 6.576029e+04 6.549398e+04 6.532044e+04 6.514956e+04 6.500677e+04 6.489180e+04 6.471394e+04 6.459842e+04 6.447480e+04 6.433966e+04 6.425200e+04 6.419271e+04 1.025694e+05 1.025694e+05 1.025694e+05 1.042061e+05 1.042061e+05 1.042061e+05 1.046003e+05 1.042744e+05 1.063628e+05 1.052265e+05 1.086349e+05 1.086349e+05 1.086349e+05 1.085737e+05 9.656400e+04 9.656400e+04 9.656400e+04 9.649438e+04 9.715457e+04 1.316146e+05 1.316146e+05 1.316146e+05 1.315282e+05 1.311845e+05 1.311845e+05 1.311845e+05 1.303696e+05 9.938392e+04 9.938392e+04 9.938392e+04 1.000267e+05 1.005708e+05 1.005469e+05 7.879059e+04 7.879059e+04 7.879059e+04 7.782112e+04 7.782112e+04 1.302781e+05 1.302781e+05 1.302781e+05 1.297161e+05 7.299014e+04 7.299014e+04 7.299014e+04 7.209858e+04 7.209858e+04 1.426319e+05 1.426319e+05 1.426319e+05 1.136722e+05 1.136722e+05 1.136722e+05 1.140607e+05 1.075907e+05 1.075907e+05 1.075907e+05 1.279315e+05 1.279315e+05 1.279315e+05 1.280351e+05 8.021757e+04 8.021757e+04 8.028074e+04 8.028074e+04 1.159242e+05 1.159242e+05 1.164062e+05 1.288693e+05 1.288693e+05 1.288693e+05 1.294739e+05 1.294739e+05 6.867821e+04 6.867821e+04 6.867821e+04 6.950530e+04 6.950530e+04 9.908797e+04 9.908797e+04 9.908797e+04 9.814409e+04 9.814409e+04 1.325866e+05 1.325866e+05 1.167736e+05 1.167736e+05 1.167736e+05 1.169206e+05 1.077083e+05 1.077083e+05 1.077083e+05 1.074435e+05 1.075030e+05 1.181183e+05 1.181183e+05 1.181183e+05 1.146341e+05 1.146341e+05 1.148778e+05 1.351045e+05 1.353374e+05 1.353374e+05 6.500677e+04 6.551146e+04 6.551146e+04 1.070635e+05 8.290715e+04 8.332882e+04 1.076235e+05 1.039874e+05 1.039874e+05 1.039874e+05 1.045964e+05 9.870871e+04 1.039467e+05 1.039467e+05 1.039467e+05 1.050108e+05 1.050108e+05 9.552674e+04 9.552674e+04 9.552674e+04 9.641500e+04 8.830191e+04 8.830191e+04 8.830191e+04 8.812797e+04 1.304971e+05 1.302778e+05 1.293125e+05 1.325662e+05 1.325662e+05 1.054580e+05 1.054580e+05 1.054580e+05 1.060525e+05 1.205452e+05 1.205452e+05 1.205452e+05 1.212808e+05 1.212808e+05 1.205925e+05 8.410001e+04 8.410001e+04 8.410001e+04 8.369362e+04 8.823354e+04 8.823354e+04 8.823354e+04 8.902245e+04 8.948294e+04 1.155553e+05 1.155553e+05 1.155553e+05 1.156228e+05 7.131855e+04 6.929668e+04 9.471233e+04 9.471233e+04 9.471233e+04 9.544448e+04 7.961693e+04 7.961693e+04 7.961693e+04 7.988273e+04 1.253916e+05 1.253916e+05 1.253916e+05 1.263122e+05 1.263122e+05 7.542928e+04 7.542928e+04 7.542928e+04 7.582196e+04 1.250853e+05 1.250853e+05 1.250853e+05 1.248094e+05 1.303757e+05 1.303757e+05 1.303757e+05 1.303468e+05 8.411296e+04 8.411296e+04 8.404863e+04 1.082034e+05 1.082034e+05 1.098902e+05 1.098902e+05 1.098902e+05 1.046814e+05 1.046814e+05 1.046814e+05 1.043939e+05 6.530466e+04 6.530466e+04 6.530466e+04 6.521667e+04 6.521667e+04 1.391332e+05 1.391332e+05 1.391332e+05 1.387509e+05 1.387509e+05 1.086378e+05 1.240630e+05 1.240630e+05 1.244499e+05 6.476272e+04 6.476272e+04 6.476272e+04 6.469801e+04 6.993236e+04 6.993236e+04 7.034403e+04 7.034403e+04 1.333671e+05 1.333671e+05 1.336707e+05 1.288114e+05 1.288114e+05 6.836390e+04 6.836390e+04 6.875517e+04 6.875517e+04 1.268079e+05 1.268079e+05 1.268079e+05 1.265301e+05 1.072186e+05 1.068495e+05 1.155664e+05 1.155664e+05 1.155664e+05 1.151748e+05 1.195319e+05 1.195319e+05 1.195319e+05 1.188234e+05 1.188234e+05 6.706762e+04 6.706762e+04 6.706762e+04 6.706786e+04 6.706786e+04 1.171166e+05 1.177434e+05 1.420435e+05 1.420435e+05 1.420435e+05 1.419432e+05 7.131034e+04 7.131034e+04 7.131034e+04 7.057771e+04 7.057771e+04 7.138913e+04 7.165846e+04 1.090620e+05 1.090620e+05 1.090620e+05 1.084173e+05 1.084173e+05 1.011243e+05 1.013831e+05 1.013831e+05 8.072739e+04 8.072739e+04 8.072739e+04 8.103868e+04 8.103868e+04 8.406702e+04 8.406702e+04 8.406702e+04 8.352362e+04 8.352362e+04 7.412816e+04 7.412816e+04 