<?xml version="1.0"?>
 <VTKFile type="UnstructuredGrid" version="1.0" byte_order="LittleEndian" header_type="UInt64">
  <UnstructuredGrid>
    <FieldData>
     <DataArray type="Float64" Name="TimeValue" NumberOfTuples="1" format="ascii">
0.00038
     </DataArray>
    </FieldData>
   <Piece NumberOfPoints="3468" NumberOfCells="3392">
    <PointData>
     <DataArray type="Float64" Name="pointP" format="ascii">
1.927901e+04 2.028330e+04 2.222626e+04 2.583008e+04 2.642553e+04 2.952742e+04 2.952742e+04 3.108302e+04 3.340693e+04 3.625213e+04 3.625213e+04 3.867176e+04 3.941126e+04 4.249928e+04 4.249928e+04 4.396761e+04 4.543593e+04 4.738385e+04 4.982741e+04 5.046861e+04 5.117522e+04 5.398455e+04 5.522427e+04 5.522427e+04 5.759142e+04 5.864557e+04 5.904824e+04 6.021808e+04 6.262534e+04 6.324663e+04 6.431645e+04 6.541098e+04 6.636523e+04 6.717289e+04 6.816281e+04 6.924197e+04 7.080757e+04 7.210177e+04 7.289328e+04 7.374978e+04 7.454482e+04 7.484415e+04 7.605055e+04 7.726884e+04 7.789129e+04 7.815581e+04 7.934898e+04 8.003893e+04 8.037990e+04 8.107240e+04 8.173289e+04 8.251692e+04 8.369132e+04 8.369132e+04 8.485337e+04 8.485337e+04 8.560397e+04 8.655212e+04 8.677473e+04 8.719207e+04 8.808499e+04 8.852675e+04 8.852675e+04 8.895359e+04 8.955436e+04 8.979077e+04 9.049953e+04 9.099858e+04 9.099858e+04 9.164155e+04 9.173579e+04 9.206736e+04 9.248940e+04 9.299651e+04 9.299651e+04 9.331254e+04 9.369754e+04 9.389530e+04 9.410821e+04 9.451035e+04 9.472009e+04 9.472009e+04 9.496969e+04 9.526234e+04 9.552209e+04 9.552209e+04 9.569665e+04 9.602396e+04 9.602396e+04 9.634195e+04 9.651789e+04 9.651789e+04 9.666314e+04 9.678935e+04 9.701491e+04 9.706430e+04 9.732628e+04 9.745468e+04 9.745468e+04 9.766213e+04 9.783393e+04 9.783393e+04 9.796435e+04 9.814834e+04 9.824288e+04 9.850798e+04 9.850798e+04 9.873264e+04 9.893473e+04 9.893473e+04 9.924397e+04 9.930212e+04 9.957483e+04 9.973837e+04 9.973837e+04 1.000949e+05 1.002354e+05 1.003035e+05 1.005799e+05 1.006921e+05 1.009501e+05 1.013250e+05 1.013250e+05 1.013250e+05 1.013250e+05 1.013250e+05 9.947898e+04 9.861247e+04 9.812386e+04 9.905435e+04 1.063356e+05 1.063356e+05 1.124270e+05 1.124270e+05 9.070043e+04 9.070043e+04 9.070043e+04 9.139909e+04 9.139909e+04 1.005685e+05 1.005685e+05 8.396476e+04 8.396476e+04 8.396476e+04 8.794031e+04 8.794031e+04 9.489135e+04 9.489135e+04 9.489135e+04 9.724566e+04 1.020458e+05 1.020458e+05 1.004493e+05 9.925059e+04 9.925059e+04 9.925059e+04 9.942368e+04 9.942368e+04 9.910515e+04 9.968696e+04 9.968696e+04 9.938030e+04 1.006251e+05 9.995023e+04 9.986468e+04 1.007250e+05 1.007250e+05 1.009377e+05 1.009377e+05 1.010350e+05 1.010991e+05 8.636633e+04 8.636633e+04 8.636633e+04 8.351767e+04 8.351767e+04 8.206683e+04 6.158643e+04 6.158643e+04 6.158643e+04 6.144925e+04 6.186415e+04 8.885264e+04 7.810273e+04 7.810273e+04 7.867382e+04 6.283945e+04 6.283945e+04 6.326131e+04 7.795270e+04 7.795270e+04 7.795270e+04 4.967555e+03 4.967555e+03 4.967555e+03 2.537248e+04 2.537248e+04 2.537248e+04 9.039529e+04 9.039529e+04 9.039529e+04 5.041815e+04 5.041815e+04 5.041815e+04 7.163523e+04 7.163523e+04 7.163523e+04 7.203356e+04 4.563234e+04 4.563234e+04 6.137390e+04 6.137390e+04 6.137390e+04 1.268849e+04 2.358555e+04 6.026142e+04 6.026142e+04 8.545842e+04 8.545842e+04 8.545842e+04 8.722117e+04 8.722117e+04 8.432136e+04 8.693247e+04 8.693247e+04 1.008921e+05 1.008921e+05 1.008921e+05 9.249647e+04 9.249647e+04 5.796106e+04 5.796106e+04 5.796106e+04 6.186220e+04 1.743540e+04 4.929691e+04 6.983285e+04 6.983285e+04 6.518235e+04 6.518235e+04 6.518235e+04 4.602530e+04 4.201855e+04 4.201855e+04 5.307921e+04 5.307921e+04 5.307921e+04 8.836963e+04 8.836963e+04 8.836963e+04 6.413126e+04 6.413126e+04 6.413126e+04 1.015624e+05 9.692216e+04 2.052794e+04 2.052794e+04 2.052794e+04 2.518647e+04 7.774116e+04 7.774116e+04 2.659281e+04 6.732874e+04 6.732874e+04 6.732874e+04 2.261623e+04 2.261623e+04 6.825531e+04 6.825531e+04 5.664447e+04 5.664447e+04 5.664447e+04 3.895971e+04 3.895971e+04 3.895971e+04 4.011500e+04 4.011500e+04 4.011500e+04 2.453181e+04 2.453181e+04 6.981929e+04 6.981929e+04 2.980231e+04 2.980231e+04 2.980231e+04 6.918445e+04 7.434820e+04 7.434820e+04 7.434820e+04 2.649693e+04 6.966277e+04 6.966277e+04 5.393311e+04 5.393311e+04 5.393311e+04 7.901019e+04 7.901019e+04 7.901019e+04 4.091987e+04 4.460462e+04 4.460462e+04 4.460462e+04 3.392815e+04 3.392815e+04 3.392815e+04 2.396212e+04 2.339860e+04 5.083103e+04 5.083103e+04 5.083103e+04 5.309106e+04 5.309106e+04 7.842340e+04 7.842340e+04 7.842340e+04 2.852278e+04 2.852278e+04 2.852278e+04 2.859041e+04 2.896098e+04 2.960054e+04 2.960054e+04 7.370177e+04 7.370177e+04 7.370177e+04 3.374902e+04 3.374902e+04 5.008792e+04 5.008792e+04 -1.893318e+04 3.215583e+04 3.215583e+04 4.296943e+04 4.296943e+04 4.296943e+04 6.423869e+04 3.443807e+04 3.936491e+04 3.936491e+04 6.845529e+04 6.845529e+04 6.478247e+04 6.478247e+04 6.478247e+04 5.434978e+04 5.434978e+04 8.612813e+04 8.612813e+04 8.612813e+04 8.013718e+04 8.013718e+04 8.013718e+04 6.037322e+04 -4.386451e+04 7.641094e+04 7.641094e+04 7.641094e+04 5.099583e+04 5.099583e+04 5.099583e+04 4.913132e+04 4.482049e+04 -4.386451e+04 5.460064e+04 8.191107e+04 8.191107e+04 8.191107e+04 5.789746e+04 5.789746e+04 8.421137e+04 8.421137e+04 8.421137e+04 6.022002e+04 6.022002e+04 6.022002e+04 5.731140e+04 8.728739e+04 8.728739e+04 8.728739e+04 5.998104e+04 4.989908e+04 4.989908e+04 5.570373e+04 7.381872e+04 7.381872e+04 5.702442e+04 6.367887e+04 6.367887e+04 6.534372e+04 6.534372e+04 6.242265e+04 5.429859e+04 7.954674e+04 7.954674e+04 7.954674e+04 6.638371e+04 8.711663e+04 8.711663e+04 3.379125e+04 6.721791e+04 6.721791e+04 6.719110e+04 9.244676e+04 9.244676e+04 9.244676e+04 8.542026e+04 8.542026e+04 6.948025e+04 6.948025e+04 7.150474e+04 7.150474e+04 5.872203e+04 8.364154e+04 8.364154e+04 8.364154e+04 7.705949e+04 7.705949e+04 7.705949e+04 4.929691e+04 8.392541e+04 8.392541e+04 7.689352e+04 7.641168e+04 3.944139e+04 5.714380e+04 6.278247e+04 6.278247e+04 8.844153e+04 8.844153e+04 8.844153e+04 7.189270e+04 9.425436e+04 9.425436e+04 9.425436e+04 7.599092e+04 7.599092e+04 7.283442e+04 6.245595e+04 9.233721e+04 9.233721e+04 9.233721e+04 8.934094e+04 8.934094e+04 8.934094e+04 9.088991e+04 9.088991e+04 8.756478e+04 8.756478e+04 8.643456e+04 8.643456e+04 8.541673e+04 6.850157e+04 6.850157e+04 7.299380e+04 7.299380e+04 8.000039e+04 8.000039e+04 6.616919e+04 9.406880e+04 9.470903e+04 9.470903e+04 9.470903e+04 7.888904e+04 8.952807e+04 8.952807e+04 8.160208e+04 8.160208e+04 8.650240e+04 6.916196e+04 7.927697e+04 8.534617e+04 8.534617e+04 8.679992e+04 8.679992e+04 7.675018e+04 9.524803e+04 9.524803e+04 9.524803e+04 9.628226e+04 9.628226e+04 9.628226e+04 8.196235e+04 8.196235e+04 8.196235e+04 7.954698e+04 7.954698e+04 9.949543e+04 9.949543e+04 9.949543e+04 9.498303e+04 9.498303e+04 9.498303e+04 8.932312e+04 9.569056e+04 9.569056e+04 9.569056e+04 9.036540e+04 9.036540e+04 8.255038e+04 9.514459e+04 9.514459e+04 9.762513e+04 9.762513e+04 9.762513e+04 8.380277e+04 8.380277e+04 8.827219e+04 8.827219e+04 9.220415e+04 9.220415e+04 9.220415e+04 9.723668e+04 9.723668e+04 9.723668e+04 9.188776e+04 9.729307e+04 9.729307e+04 9.729307e+04 9.977578e+04 9.977578e+04 9.977578e+04 9.362678e+04 9.362678e+04 9.362678e+04 9.248095e+04 9.374509e+04 9.374509e+04 9.266904e+04 8.821919e+04 8.821919e+04 9.970736e+04 9.370185e+04 9.370185e+04 9.370185e+04 9.762449e+04 9.762449e+04 9.762449e+04 9.393300e+04 9.393300e+04 9.393300e+04 9.583163e+04 9.583163e+04 9.583163e+04 9.484092e+04 9.484092e+04 9.513511e+04 9.513511e+04 9.621902e+04 9.621902e+04 9.668419e+04 9.668419e+04 9.668419e+04 9.334858e+04 9.334858e+04 9.268697e+04 9.268697e+04 9.717161e+04 9.735799e+04 9.735799e+04 9.466707e+04 9.466707e+04 9.528926e+04 9.767765e+04 9.767765e+04 9.767765e+04 9.589369e+04 9.589369e+04 9.680087e+04 9.680087e+04 9.534831e+04 9.836889e+04 9.836889e+04 9.836889e+04 1.063394e+05 1.063394e+05 1.063394e+05 9.793707e+04 9.793707e+04 9.846561e+04 9.846561e+04 9.846561e+04 9.743977e+04 9.893852e+04 9.893852e+04 9.653393e+04 1.014961e+05 4.370925e+04 9.249918e+04 2.809629e+04 7.008913e+04 1.071707e+05 1.002793e+05 1.002793e+05 1.002793e+05 9.633667e+04 9.633667e+04 9.422459e+04 9.447295e+04 1.005192e+05 9.613843e+04 1.046108e+05 8.946781e+04 9.720051e+04 9.720051e+04 9.801608e+04 9.801608e+04 9.801608e+04 9.800356e+04 9.594474e+04 9.417619e+04 9.417619e+04 9.468290e+04 9.468290e+04 9.468290e+04 9.470819e+04 8.583834e+04 8.455211e+04 3.727081e+04 3.810290e+04 3.810290e+04 1.938884e+04 5.969228e+04 5.969228e+04 9.098117e+04 9.222773e+04 9.873630e+04 9.873630e+04 9.873630e+04 9.948085e+04 9.948085e+04 2.332729e+04 2.332729e+04 4.842826e+04 3.452275e+04 2.510282e+04 2.530062e+04 2.967961e+04 2.967961e+04 2.967961e+04 5.391735e+04 3.536673e+04 3.948477e+04 6.676314e+04 5.591564e+04 4.966263e+04 4.966263e+04 4.966263e+04 4.777697e+04 4.777697e+04 2.345243e+04 2.673339e+04 4.033803e+04 2.169745e+04 5.318586e+04 3.392201e+04 3.153486e+04 3.153486e+04 2.807956e+04 4.472476e+04 4.472476e+04 4.253196e+04 3.150019e+04 4.487976e+04 5.721152e+04 5.784248e+04 6.043541e+04 4.215926e+04 4.215926e+04 4.215926e+04 3.685191e+04 3.685191e+04 5.120086e+04 5.176416e+04 3.832295e+04 3.589762e+04 4.598089e+04 2.873680e+04 3.306945e+04 7.565958e+04 5.227310e+04 3.718262e+04 5.683521e+04 4.278799e+04 4.686409e+04 6.563139e+04 6.505325e+04 7.061748e+04 4.466525e+04 3.040644e+04 8.335149e+04 8.335149e+04 3.644301e+04 7.129310e+04 7.129310e+04 5.498568e+04 5.498568e+04 7.049214e+04 8.479712e+04 8.144507e+04 8.144507e+04 8.144507e+04 4.609855e+04 4.728247e+04 4.728247e+04 8.390719e+04 8.698205e+04 5.614311e+04 8.038230e+04 8.008800e+04 8.008800e+04 7.193990e+04 6.422075e+04 6.662794e+04 6.662794e+04 7.353991e+04 7.297173e+04 7.456141e+04 8.041580e+04 8.036860e+04 8.876063e+04 8.876063e+04 6.396778e+04 5.414132e+04 7.213356e+04 7.213356e+04 7.213356e+04 7.706230e+04 8.073962e+04 5.763671e+04 7.112510e+04 8.571677e+04 8.571677e+04 8.571677e+04 6.782092e+04 6.782092e+04 8.246055e+04 7.645927e+04 8.939529e+04 7.477161e+04 8.808243e+04 9.041788e+04 9.041788e+04 8.627207e+04 8.498442e+04 7.749598e+04 8.212915e+04 8.244099e+04 7.929419e+04 8.963255e+04 8.963255e+04 8.963255e+04 8.680582e+04 7.308164e+04 7.791510e+04 9.000659e+04 6.881461e+04 7.512185e+04 7.512185e+04 9.140390e+04 9.110442e+04 9.611453e+04 9.611453e+04 7.628138e+04 9.390616e+04 9.390616e+04 9.355125e+04 9.037977e+04 9.037977e+04 9.338715e+04 9.338715e+04 8.113177e+04 9.173232e+04 9.404219e+04 9.437117e+04 9.437117e+04 7.922237e+04 8.793690e+04 8.793690e+04 9.092925e+04 9.092925e+04 9.092925e+04 8.348409e+04 8.348409e+04 8.638856e+04 9.291814e+04 9.291814e+04 9.587263e+04 9.542703e+04 9.392687e+04 8.790402e+04 9.195146e+04 8.840761e+04 8.916741e+04 9.061792e+04 9.033435e+04 9.457032e+04 9.675651e+04 9.675651e+04 9.675651e+04 9.433989e+04 9.494356e+04 9.546996e+04 9.546996e+04 9.546996e+04 9.294072e+04 9.158860e+04 9.158860e+04 9.158860e+04 9.649358e+04 8.627319e+04 9.687321e+04 9.687321e+04 9.473549e+04 8.837822e+04 8.335443e+04 8.752923e+04 9.169159e+04 9.933022e+04 9.933022e+04 9.263585e+04 8.958630e+04 9.568325e+04 8.706504e+04 9.344353e+04 9.344353e+04 9.344353e+04 9.633999e+04 9.591199e+04 9.591199e+04 9.591199e+04 9.725462e+04 9.725462e+04 9.655354e+04 9.231738e+04 9.822867e+04 9.815764e+04 9.515705e+04 9.569143e+04 9.569143e+04 9.789107e+04 9.789107e+04 8.892307e+04 9.611552e+04 9.748228e+04 9.748228e+04 9.665190e+04 9.665190e+04 8.309458e+04 9.529330e+04 9.365603e+04 9.858733e+04 9.858733e+04 9.834216e+04 9.834216e+04 9.834216e+04 9.865816e+04 9.798576e+04 9.798576e+04 9.482247e+04 9.273411e+04 9.329289e+04 9.626834e+04 9.638727e+04 9.638727e+04 9.851622e+04 9.568222e+04 9.705513e+04 9.624289e+04 9.657923e+04 9.657923e+04 9.588464e+04 9.547616e+04 9.733949e+04 9.733949e+04 9.810979e+04 9.810979e+04 9.675392e+04 9.675392e+04 1.005373e+05 9.918088e+04 1.003040e+05 9.973835e+04 9.231247e+04 9.231247e+04 9.747081e+04 9.884484e+04 9.884484e+04 9.894504e+04 9.894504e+04 9.989614e+04 9.989614e+04 9.826114e+04 9.340417e+04 9.310689e+04 9.723404e+04 9.626878e+04 9.888214e+04 9.705954e+04 9.694718e+04 9.905457e+04 9.905457e+04 9.061121e+04 9.774142e+04 9.774142e+04 9.774142e+04 9.780702e+04 1.002226e+05 9.996293e+04 9.613575e+04 9.349941e+04 9.674797e+04 9.666435e+04 9.851885e+04 1.000941e+05 9.521682e+04 1.003094e+05 9.922771e+04 9.693698e+04 9.873153e+04 9.729559e+04 9.950840e+04 9.873578e+04 9.843399e+04 9.826341e+04 9.851137e+04 9.596405e+04 9.660248e+04 9.770538e+04 9.723807e+04 9.723807e+04 9.822641e+04 9.822641e+04 9.761220e+04 9.761220e+04 9.752263e+04 9.805295e+04 9.860054e+04 1.013250e+05 1.013250e+05 1.013250e+05 1.013250e+05 1.005979e+05 9.965212e+04 9.867012e+04 9.835288e+04 9.942854e+04 1.070047e+05 1.230285e+05 9.768447e+04 9.768447e+04 9.768447e+04 9.731054e+04 9.913056e+04 9.612275e+04 9.642073e+04 9.861041e+04 9.861041e+04 9.861041e+04 9.855102e+04 9.553977e+04 9.553977e+04 9.553977e+04 9.565044e+04 1.082356e+05 1.082356e+05 1.082356e+05 1.077118e+05 1.077118e+05 9.957746e+04 9.957746e+04 9.957746e+04 9.995534e+04 9.995534e+04 1.042668e+05 9.934351e+04 9.934351e+04 9.968632e+04 9.899342e+04 9.899342e+04 9.898066e+04 9.539036e+04 1.002142e+05 1.002142e+05 1.002142e+05 1.007511e+05 1.007511e+05 1.007511e+05 1.008611e+05 9.973837e+04 9.988100e+04 9.988100e+04 9.988100e+04 1.070286e+05 1.106381e+05 1.070286e+05 1.070286e+05 9.997604e+04 1.001260e+05 1.206126e+05 1.256553e+05 1.206126e+05 1.206126e+05 9.681607e+04 9.726820e+04 9.726820e+04 9.726820e+04 9.730456e+04 9.820288e+04 9.820288e+04 1.005979e+05 1.339125e+05 9.982178e+04 9.982178e+04 1.003449e+05 9.682159e+04 9.682159e+04 1.156463e+05 6.271065e+04 6.271065e+04 6.271065e+04 6.324663e+04 8.626062e+04 8.626062e+04 8.626062e+04 8.673470e+04 8.673470e+04 9.563166e+04 9.563166e+04 9.563166e+04 9.532945e+04 9.532945e+04 7.992691e+04 7.992691e+04 7.992691e+04 7.891356e+04 9.479387e+04 9.479387e+04 9.479387e+04 9.491742e+04 8.682041e+04 8.682041e+04 8.682041e+04 8.704939e+04 8.722649e+04 8.727091e+04 7.126574e+04 7.126574e+04 7.126574e+04 7.085856e+04 7.085247e+04 8.003893e+04 8.003893e+04 8.280181e+04 8.280181e+04 8.280181e+04 6.852678e+04 6.852678e+04 6.852678e+04 6.219978e+04 6.219978e+04 6.219978e+04 9.417015e+04 9.417015e+04 9.306862e+04 9.306862e+04 9.643730e+04 9.643730e+04 9.643730e+04 9.637176e+04 4.308695e+04 4.308695e+04 4.308695e+04 8.816907e+04 8.816907e+04 8.816907e+04 6.446838e+04 6.446838e+04 6.446838e+04 8.209538e+04 8.209538e+04 8.209538e+04 5.601485e+04 5.601485e+04 5.601485e+04 5.302854e+04 5.302854e+04 4.130177e+04 4.130177e+04 3.251686e+04 3.251686e+04 3.251686e+04 5.968970e+04 5.968970e+04 5.968970e+04 7.501062e+04 7.501062e+04 7.501062e+04 7.008223e+04 5.977782e+04 9.459892e+04 9.459892e+04 9.459892e+04 9.032414e+04 9.032414e+04 9.032414e+04 8.428981e+04 8.428981e+04 1.033166e+05 1.033166e+05 1.015309e+05 8.996682e+04 8.996682e+04 8.996682e+04 8.929553e+04 8.929553e+04 8.929553e+04 6.800784e+04 7.082976e+04 8.138234e+04 8.138234e+04 8.138234e+04 9.374762e+04 9.374762e+04 9.374762e+04 8.240529e+04 5.484690e+04 5.990212e+04 5.990212e+04 5.990212e+04 3.328037e+04 3.328037e+04 3.328037e+04 6.676301e+04 6.676301e+04 7.033585e+04 7.033585e+04 8.003905e+04 8.358130e+04 8.358130e+04 9.460455e+04 9.460455e+04 9.460455e+04 9.377657e+04 9.533893e+04 9.533893e+04 9.902922e+04 9.902922e+04 9.902922e+04 2.634737e+04 4.785689e+04 4.785689e+04 4.785689e+04 3.415759e+04 3.415759e+04 3.181777e+04 7.454482e+04 7.454482e+04 3.629074e+04 3.629074e+04 6.471345e+04 6.471345e+04 6.471345e+04 3.047950e+04 3.909115e+04 3.909115e+04 3.909115e+04 5.370087e+04 5.370087e+04 5.370087e+04 4.156318e+04 4.156318e+04 5.907661e+04 5.907661e+04 5.907661e+04 6.049085e+04 4.506990e+04 4.506990e+04 4.506990e+04 5.454325e+04 5.454325e+04 5.454325e+04 2.766214e+04 2.766214e+04 2.766214e+04 3.085262e+04 3.085262e+04 3.115640e+04 4.790934e+04 4.790934e+04 4.794756e+04 4.794756e+04 3.776303e+04 3.776303e+04 5.135089e+04 3.115640e+04 3.115640e+04 7.326371e+04 7.326371e+04 7.326371e+04 4.257254e+04 3.457403e+04 3.396022e+04 5.747584e+04 5.747584e+04 7.524449e+04 7.524449e+04 7.524449e+04 7.256098e+04 6.875424e+04 9.078537e+04 9.078537e+04 9.078537e+04 3.547346e+04 8.016572e+04 8.016572e+04 8.016572e+04 6.404306e+04 6.404306e+04 6.404306e+04 4.438064e+04 9.172828e+04 9.172828e+04 9.172828e+04 7.568509e+04 7.113712e+04 7.113712e+04 7.113712e+04 7.323767e+04 3.877769e+04 3.373683e+04 9.274235e+04 9.274235e+04 9.274235e+04 4.983229e+04 4.983229e+04 3.944760e+04 3.944760e+04 4.452806e+04 4.753023e+04 8.277557e+04 5.112980e+04 6.550858e+04 6.550858e+04 8.455412e+04 8.455412e+04 8.455412e+04 9.360381e+04 9.360381e+04 9.360381e+04 7.869381e+04 7.869381e+04 7.869381e+04 9.278790e+04 9.278790e+04 6.418299e+04 6.418299e+04 6.754329e+04 6.754329e+04 7.612536e+04 7.612536e+04 7.612536e+04 5.372146e+04 5.372146e+04 4.268810e+04 4.268810e+04 7.485665e+04 7.485665e+04 4.554416e+04 4.554416e+04 4.554416e+04 6.092311e+04 9.338787e+04 9.338787e+04 8.061548e+04 7.811648e+04 7.811648e+04 7.811648e+04 4.904571e+04 5.847842e+04 8.457291e+04 8.457291e+04 8.457291e+04 8.567806e+04 8.567806e+04 7.372483e+04 7.372483e+04 7.372483e+04 5.041816e+04 8.815833e+04 8.815833e+04 8.815833e+04 7.253739e+04 7.681043e+04 8.628162e+04 8.998318e+04 8.998318e+04 9.079041e+04 9.079041e+04 7.795261e+04 8.503781e+04 8.503781e+04 8.503781e+04 8.057891e+04 6.423373e+04 6.423373e+04 8.610399e+04 8.610399e+04 8.785366e+04 8.785366e+04 9.510894e+04 9.510894e+04 7.548795e+04 5.977782e+04 8.930826e+04 8.930826e+04 8.930826e+04 6.650334e+04 6.891628e+04 9.625109e+04 9.625109e+04 9.625109e+04 8.473243e+04 7.516914e+04 7.516914e+04 7.258006e+04 9.721630e+04 9.721630e+04 9.721630e+04 8.671385e+04 7.134629e+04 7.453676e+04 9.641443e+04 9.641443e+04 9.231957e+04 9.231957e+04 9.231957e+04 9.291864e+04 9.291864e+04 9.291864e+04 7.769062e+04 8.182981e+04 9.733202e+04 9.733202e+04 9.733202e+04 9.024918e+04 9.024918e+04 9.024918e+04 9.005064e+04 9.707971e+04 9.707971e+04 9.707971e+04 8.611311e+04 9.837266e+04 9.061560e+04 9.346727e+04 9.346727e+04 8.455021e+04 8.512762e+04 8.647585e+04 9.774968e+04 9.774968e+04 9.774968e+04 9.650875e+04 9.940266e+04 9.940266e+04 9.940266e+04 9.396919e+04 9.181152e+04 9.181152e+04 9.147960e+04 9.168865e+04 9.797858e+04 9.797858e+04 8.734747e+04 8.734747e+04 9.664559e+04 9.600824e+04 9.600824e+04 9.628222e+04 9.186289e+04 9.186289e+04 9.036318e+04 8.943485e+04 9.858515e+04 9.858515e+04 9.922120e+04 9.735539e+04 9.735539e+04 9.369369e+04 1.005472e+05 9.607467e+04 9.607467e+04 9.652714e+04 9.700991e+04 9.700991e+04 9.700991e+04 9.547611e+04 1.147702e+05 1.147702e+05 9.564423e+04 9.564423e+04 1.002094e+05 9.777294e+04 9.925654e+04 9.925654e+04 9.760767e+04 9.786681e+04 9.786681e+04 9.402079e+04 8.617844e+04 8.963473e+04 8.978529e+04 8.978529e+04 9.807122e+04 9.139534e+04 8.937401e+04 8.937401e+04 2.634737e+04 2.634737e+04 9.377659e+04 8.207867e+04 9.657444e+04 9.657444e+04 9.333747e+04 9.071136e+04 8.701063e+04 8.701063e+04 7.041918e+04 8.103956e+04 4.738385e+04 9.248940e+04 9.850798e+04 9.930212e+04 9.930212e+04 9.957483e+04 2.642553e+04 2.642553e+04 2.952742e+04 3.166136e+04 3.166136e+04 1.927901e+04 2.013395e+04 1.927901e+04 2.782968e+04 4.834108e+04 2.128249e+04 2.433225e+04 2.433225e+04 2.433225e+04 3.625213e+04 3.949840e+04 3.949840e+04 3.949840e+04 3.867176e+04 3.867176e+04 2.228798e+04 5.046861e+04 5.046861e+04 4.249928e+04 4.396761e+04 3.492342e+04 3.492342e+04 4.543593e+04 6.541098e+04 5.165450e+04 4.456718e+04 5.522427e+04 2.343239e+04 2.343239e+04 4.168523e+04 2.122509e+04 4.600346e+04 3.076274e+04 2.774913e+04 5.864557e+04 5.864557e+04 6.636523e+04 5.759142e+04 6.686735e+04 5.066735e+04 4.192296e+04 3.807663e+04 5.580777e+04 6.060985e+04 6.060985e+04 6.060985e+04 6.091235e+04 4.641663e+04 4.807456e+04 4.276850e+04 4.276850e+04 5.309504e+04 7.789129e+04 7.789129e+04 5.300858e+04 3.975270e+04 5.495207e+04 6.077954e+04 7.289328e+04 7.289328e+04 5.093536e+04 5.093536e+04 5.093536e+04 6.774328e+04 6.774328e+04 4.890585e+04 6.816281e+04 6.160247e+04 7.681050e+04 7.681050e+04 7.681050e+04 5.377214e+04 7.602866e+04 7.602866e+04 6.616464e+04 6.201618e+04 8.560397e+04 8.560397e+04 6.924197e+04 7.080757e+04 7.080757e+04 8.485337e+04 7.210177e+04 4.502960e+04 6.651621e+04 7.472994e+04 7.026273e+04 7.026273e+04 8.295299e+04 8.295299e+04 8.295299e+04 5.686069e+04 8.107240e+04 7.934898e+04 5.623893e+04 5.869319e+04 7.074580e+04 7.164946e+04 7.857950e+04 8.015807e+04 8.015807e+04 6.673912e+04 6.673912e+04 6.366580e+04 6.343588e+04 5.093847e+04 6.890539e+04 7.368894e+04 5.888961e+04 6.466695e+04 8.369132e+04 8.154729e+04 8.154729e+04 8.154729e+04 8.746327e+04 6.302286e+04 7.814105e+04 7.814105e+04 8.852675e+04 8.260122e+04 9.049953e+04 9.049953e+04 8.832748e+04 8.357150e+04 8.466647e+04 8.466647e+04 9.164155e+04 8.955436e+04 8.955436e+04 8.550899e+04 8.261229e+04 8.895359e+04 9.042176e+04 7.984851e+04 7.635271e+04 7.754179e+04 8.407645e+04 7.628566e+04 9.192688e+04 9.021609e+04 8.929296e+04 8.989338e+04 8.868097e+04 8.183685e+04 9.369754e+04 9.369754e+04 9.389530e+04 9.386766e+04 7.214682e+04 9.090149e+04 9.090149e+04 9.407813e+04 9.407813e+04 9.415440e+04 8.333630e+04 9.553698e+04 8.493904e+04 9.114990e+04 9.248587e+04 8.424443e+04 9.299651e+04 7.955873e+04 9.154656e+04 9.154656e+04 9.451035e+04 8.836065e+04 9.701491e+04 9.701491e+04 9.651789e+04 9.467485e+04 8.877109e+04 7.763702e+04 9.634195e+04 8.695517e+04 9.538604e+04 9.538604e+04 9.552209e+04 9.526234e+04 9.412823e+04 9.602396e+04 9.608637e+04 9.008283e+04 9.619826e+04 9.329651e+04 9.329651e+04 9.243764e+04 9.666314e+04 9.678935e+04 6.764045e+04 9.745468e+04 9.492148e+04 9.783393e+04 9.177158e+04 9.861654e+04 9.861654e+04 9.569665e+04 9.642068e+04 9.057524e+04 9.057524e+04 9.832269e+04 9.832269e+04 9.832269e+04 9.286667e+04 9.703646e+04 9.447469e+04 8.018233e+04 9.563476e+04 9.732628e+04 7.853957e+04 9.766213e+04 9.766213e+04 9.677337e+04 8.784879e+04 9.699253e+04 9.594717e+04 9.727884e+04 9.605077e+04 9.729568e+04 9.751410e+04 9.751410e+04 9.422014e+04 9.415796e+04 9.865774e+04 9.642152e+04 9.462610e+04 9.462610e+04 9.462610e+04 9.573758e+04 9.872852e+04 9.789423e+04 9.808283e+04 9.808283e+04 9.808283e+04 9.893473e+04 9.590896e+04 9.590896e+04 9.839222e+04 9.855115e+04 9.751141e+04 9.814834e+04 9.768774e+04 9.930698e+04 1.005799e+05 9.878496e+04 9.869123e+04 9.484781e+04 9.900658e+04 9.951194e+04 9.535800e+04 9.689002e+04 9.689002e+04 9.780978e+04 9.780978e+04 9.805829e+04 9.758588e+04 9.852262e+04 9.662118e+04 9.751909e+04 9.809924e+04 9.820694e+04 1.002354e+05 8.777121e+04 9.884342e+04 9.836467e+04 9.804902e+04 9.809615e+04 9.907363e+04 9.743192e+04 9.806172e+04 9.787108e+04 9.118141e+04 9.951301e+04 1.009501e+05 9.816492e+04 9.816492e+04 9.899995e+04 9.899995e+04 9.279815e+04 9.279815e+04 9.958627e+04 9.811045e+04 9.763930e+04 9.970828e+04 9.749246e+04 9.619149e+04 9.536582e+04 9.991262e+04 9.776981e+04 9.867012e+04 9.828655e+04 9.872450e+04 1.007807e+05 1.010533e+05 1.008095e+05 1.927901e+04 2.028330e+04 2.222626e+04 2.583008e+04 2.642553e+04 2.952742e+04 2.952742e+04 3.108302e+04 3.340693e+04 3.625213e+04 3.625213e+04 3.867176e+04 3.941126e+04 4.249928e+04 4.249928e+04 4.396761e+04 4.543593e+04 4.738385e+04 4.982741e+04 5.046861e+04 5.117522e+04 5.398455e+04 5.522427e+04 5.522427e+04 5.759142e+04 5.864557e+04 5.904824e+04 6.021808e+04 6.262534e+04 6.324663e+04 6.431645e+04 6.541098e+04 6.636523e+04 6.717289e+04 6.816281e+04 6.924197e+04 7.080757e+04 7.210177e+04 7.289328e+04 7.374978e+04 7.454482e+04 7.484415e+04 7.605055e+04 7.726884e+04 7.789129e+04 7.815581e+04 7.934898e+04 8.003893e+04 8.037990e+04 8.107240e+04 8.173289e+04 8.251692e+04 8.369132e+04 8.369132e+04 8.485337e+04 8.485337e+04 8.560397e+04 8.655212e+04 8.677473e+04 8.719207e+04 8.808499e+04 8.852675e+04 8.852675e+04 8.895359e+04 8.955436e+04 8.979077e+04 9.049953e+04 9.099858e+04 9.099858e+04 9.164155e+04 9.173579e+04 9.206736e+04 9.248940e+04 9.299651e+04 9.299651e+04 9.331254e+04 9.369754e+04 9.389530e+04 9.410821e+04 9.451035e+04 9.472009e+04 9.472009e+04 9.496969e+04 9.526234e+04 9.552209e+04 9.552209e+04 9.569665e+04 9.602396e+04 9.602396e+04 9.634195e+04 9.651789e+04 9.651789e+04 9.666314e+04 9.678935e+04 9.701491e+04 9.706430e+04 9.732628e+04 9.745468e+04 9.745468e+04 9.766213e+04 9.783393e+04 9.783393e+04 9.796435e+04 9.814834e+04 9.824288e+04 9.850798e+04 9.850798e+04 9.873264e+04 9.893473e+04 9.893473e+04 9.924397e+04 9.930212e+04 9.957483e+04 9.973837e+04 9.973837e+04 1.000949e+05 1.002354e+05 1.003035e+05 1.005799e+05 1.006921e+05 1.009501e+05 1.013250e+05 1.013250e+05 1.013250e+05 1.013250e+05 1.013250e+05 1.006251e+05 9.947898e+04 9.805295e+04 9.812386e+04 1.020458e+05 1.124270e+05 1.124270e+05 1.124270e+05 9.070043e+04 9.070043e+04 9.070043e+04 9.139909e+04 9.139909e+04 1.005685e+05 1.005685e+05 8.396476e+04 8.396476e+04 8.396476e+04 8.794031e+04 8.794031e+04 9.489135e+04 9.489135e+04 9.489135e+04 9.724566e+04 1.020458e+05 1.020458e+05 1.004493e+05 9.925059e+04 9.925059e+04 9.925059e+04 9.942368e+04 9.942368e+04 9.910515e+04 9.968696e+04 9.968696e+04 9.938030e+04 1.006251e+05 9.995023e+04 9.986468e+04 1.007250e+05 1.007250e+05 1.009377e+05 1.009377e+05 1.010350e+05 1.010991e+05 8.636633e+04 8.636633e+04 8.636633e+04 8.351767e+04 8.351767e+04 8.206683e+04 6.158643e+04 6.158643e+04 6.158643e+04 6.144925e+04 6.186415e+04 8.885264e+04 7.810273e+04 7.810273e+04 7.867382e+04 6.283945e+04 6.283945e+04 6.326131e+04 7.795270e+04 7.795270e+04 7.795270e+04 4.967555e+03 4.967555e+03 4.967555e+03 2.537248e+04 2.537248e+04 2.537248e+04 9.039529e+04 9.039529e+04 9.039529e+04 5.041815e+04 5.041815e+04 5.041815e+04 7.163523e+04 7.163523e+04 7.163523e+04 7.203356e+04 4.563234e+04 4.563234e+04 6.137390e+04 6.137390e+04 6.137390e+04 1.268849e+04 2.358555e+04 6.026142e+04 6.026142e+04 8.545842e+04 8.545842e+04 8.545842e+04 8.722117e+04 8.722117e+04 8.432136e+04 8.693247e+04 8.693247e+04 1.008921e+05 1.008921e+05 1.008921e+05 9.249647e+04 9.249647e+04 5.796106e+04 5.796106e+04 5.796106e+04 6.186220e+04 1.743540e+04 4.929691e+04 6.983285e+04 6.983285e+04 6.518235e+04 6.518235e+04 6.518235e+04 4.602530e+04 4.201855e+04 4.201855e+04 5.307921e+04 5.307921e+04 5.307921e+04 8.836963e+04 8.836963e+04 8.836963e+04 6.413126e+04 6.413126e+04 6.413126e+04 1.015624e+05 9.692216e+04 2.052794e+04 2.052794e+04 2.052794e+04 2.518647e+04 7.774116e+04 7.774116e+04 2.659281e+04 6.732874e+04 6.732874e+04 6.732874e+04 2.261623e+04 2.261623e+04 6.825531e+04 6.825531e+04 5.664447e+04 5.664447e+04 5.664447e+04 3.895971e+04 3.895971e+04 3.895971e+04 4.011500e+04 4.011500e+04 4.011500e+04 2.453181e+04 2.453181e+04 6.981929e+04 6.981929e+04 2.980231e+04 2.980231e+04 2.980231e+04 6.918445e+04 7.434820e+04 7.434820e+04 7.434820e+04 2.649693e+04 6.966277e+04 6.966277e+04 5.393311e+04 5.393311e+04 5.393311e+04 7.901019e+04 7.901019e+04 7.901019e+04 4.091987e+04 4.460462e+04 4.460462e+04 4.460462e+04 3.392815e+04 3.392815e+04 3.392815e+04 2.396212e+04 2.339860e+04 5.083103e+04 5.083103e+04 5.083103e+04 5.309106e+04 5.309106e+04 7.842340e+04 7.842340e+04 7.842340e+04 2.852278e+04 2.852278e+04 2.852278e+04 2.859041e+04 2.896098e+04 2.960054e+04 2.960054e+04 7.370177e+04 7.370177e+04 7.370177e+04 3.374902e+04 3.374902e+04 5.008792e+04 5.008792e+04 -1.893318e+04 3.215583e+04 3.215583e+04 4.296943e+04 4.296943e+04 4.296943e+04 6.423869e+04 3.443807e+04 3.936491e+04 3.936491e+04 6.845529e+04 6.845529e+04 6.478247e+04 6.478247e+04 6.478247e+04 5.434978e+04 5.434978e+04 8.612813e+04 8.612813e+04 8.612813e+04 8.013718e+04 8.013718e+04 8.013718e+04 6.037322e+04 -4.386451e+04 7.641094e+04 7.641094e+04 7.641094e+04 5.099583e+04 5.099583e+04 5.099583e+04 4.913132e+04 4.482049e+04 -4.386451e+04 5.460064e+04 8.191107e+04 8.191107e+04 8.191107e+04 5.789746e+04 5.789746e+04 8.421137e+04 8.421137e+04 8.421137e+04 6.022002e+04 6.022002e+04 6.022002e+04 5.731140e+04 8.728739e+04 8.728739e+04 8.728739e+04 5.998104e+04 4.989908e+04 4.989908e+04 5.570373e+04 7.381872e+04 7.381872e+04 5.702442e+04 6.367887e+04 6.367887e+04 6.534372e+04 6.534372e+04 6.242265e+04 5.429859e+04 7.954674e+04 7.954674e+04 7.954674e+04 6.638371e+04 8.711663e+04 8.711663e+04 3.379125e+04 6.721791e+04 6.721791e+04 6.719110e+04 9.244676e+04 9.244676e+04 9.244676e+04 8.542026e+04 8.542026e+04 6.948025e+04 6.948025e+04 7.150474e+04 7.150474e+04 5.872203e+04 8.364154e+04 8.364154e+04 8.364154e+04 7.705949e+04 7.705949e+04 7.705949e+04 4.929691e+04 8.392541e+04 8.392541e+04 7.689352e+04 7.641168e+04 3.944139e+04 5.714380e+04 6.278247e+04 6.278247e+04 8.844153e+04 8.844153e+04 8.844153e+04 7.189270e+04 9.425436e+04 9.425436e+04 9.425436e+04 7.599092e+04 7.599092e+04 7.283442e+04 6.245595e+04 9.233721e+04 9.233721e+04 9.233721e+04 8.934094e+04 8.934094e+04 8.934094e+04 9.088991e+04 9.088991e+04 8.756478e+04 8.756478e+04 8.643456e+04 8.643456e+04 8.541673e+04 6.850157e+04 6.850157e+04 7.299380e+04 7.299380e+04 8.000039e+04 8.000039e+04 6.616919e+04 9.406880e+04 9.470903e+04 9.470903e+04 9.470903e+04 7.888904e+04 8.952807e+04 8.952807e+04 8.160208e+04 8.160208e+04 8.650240e+04 6.916196e+04 7.927697e+04 8.534617e+04 8.534617e+04 8.679992e+04 8.679992e+04 7.675018e+04 9.524803e+04 9.524803e+04 9.524803e+04 9.628226e+04 9.628226e+04 9.628226e+04 8.196235e+04 8.196235e+04 8.196235e+04 7.954698e+04 7.954698e+04 9.949543e+04 9.949543e+04 9.949543e+04 9.498303e+04 9.498303e+04 9.498303e+04 8.932312e+04 9.569056e+04 9.569056e+04 9.569056e+04 9.036540e+04 9.036540e+04 8.255038e+04 9.514459e+04 9.514459e+04 9.762513e+04 9.762513e+04 9.762513e+04 8.380277e+04 8.380277e+04 8.827219e+04 8.827219e+04 9.220415e+04 9.220415e+04 9.220415e+04 9.723668e+04 9.723668e+04 9.723668e+04 9.188776e+04 9.729307e+04 9.729307e+04 9.729307e+04 9.977578e+04 9.977578e+04 9.977578e+04 9.362678e+04 9.362678e+04 9.362678e+04 9.248095e+04 9.374509e+04 9.374509e+04 9.266904e+04 8.821919e+04 8.821919e+04 9.970736e+04 9.370185e+04 9.370185e+04 9.370185e+04 9.762449e+04 9.762449e+04 9.762449e+04 9.393300e+04 9.393300e+04 9.393300e+04 9.583163e+04 9.58316