<?xml version="1.0"?>
 <VTKFile type="UnstructuredGrid" version="1.0" byte_order="LittleEndian" header_type="UInt64">
  <UnstructuredGrid>
    <FieldData>
     <DataArray type="Float64" Name="TimeValue" NumberOfTuples="1" format="ascii">
0.002
     </DataArray>
    </FieldData>
   <Piece NumberOfPoints="3662" NumberOfCells="3444">
    <PointData>
     <DataArray type="Float64" Name="pointP" format="ascii">
1.134543e+05 1.135422e+05 1.136508e+05 1.135730e+05 1.134970e+05 1.135405e+05 1.134677e+05 1.134326e+05 1.134036e+05 1.133927e+05 1.133898e+05 1.133746e+05 1.133522e+05 1.133029e+05 1.133182e+05 1.131886e+05 1.131622e+05 1.131083e+05 1.130772e+05 1.129813e+05 1.129322e+05 1.128121e+05 1.127429e+05 1.127911e+05 1.126083e+05 1.127377e+05 1.124935e+05 1.125618e+05 1.123959e+05 1.122004e+05 1.122778e+05 1.120960e+05 1.121534e+05 1.119993e+05 1.118891e+05 1.116612e+05 1.117437e+05 1.115829e+05 1.113558e+05 1.112034e+05 1.111115e+05 1.110075e+05 1.110102e+05 1.108066e+05 1.107006e+05 1.107882e+05 1.105685e+05 1.103884e+05 1.102305e+05 1.101027e+05 1.099716e+05 1.099157e+05 1.100670e+05 1.097076e+05 1.095493e+05 1.094238e+05 1.092454e+05 1.091215e+05 1.090042e+05 1.089263e+05 1.087565e+05 1.086344e+05 1.084246e+05 1.082634e+05 1.080533e+05 1.079324e+05 1.077573e+05 1.076233e+05 1.074703e+05 1.073314e+05 1.071415e+05 1.069883e+05 1.068557e+05 1.067451e+05 1.065890e+05 1.064649e+05 1.063087e+05 1.061406e+05 1.059673e+05 1.057709e+05 1.056174e+05 1.054686e+05 1.052684e+05 1.051128e+05 1.049497e+05 1.047839e+05 1.046147e+05 1.044491e+05 1.042893e+05 1.041470e+05 1.039889e+05 1.037881e+05 1.036336e+05 1.034224e+05 1.032571e+05 1.030924e+05 1.028811e+05 1.027063e+05 1.025455e+05 1.023807e+05 1.022008e+05 1.020237e+05 1.018571e+05 1.016528e+05 1.014868e+05 1.012686e+05 1.011049e+05 1.009403e+05 1.007782e+05 1.006296e+05 1.004784e+05 1.002869e+05 1.001304e+05 9.996373e+04 9.979704e+04 9.964811e+04 9.943142e+04 9.926221e+04 9.910419e+04 9.893257e+04 9.876569e+04 9.861322e+04 9.842407e+04 9.842407e+04 1.018999e+05 1.025689e+05 1.028940e+05 1.029330e+05 1.030290e+05 1.031548e+05 1.032500e+05 1.032500e+05 1.032657e+05 1.033168e+05 1.033568e+05 1.033568e+05 1.034865e+05 1.034865e+05 1.036305e+05 1.037043e+05 1.037347e+05 1.038445e+05 1.039592e+05 1.042508e+05 1.042508e+05 1.045707e+05 1.045707e+05 1.047477e+05 1.051483e+05 1.052455e+05 1.055081e+05 1.056381e+05 1.060082e+05 1.062686e+05 1.065288e+05 1.069618e+05 1.070876e+05 1.075343e+05 1.079566e+05 1.082936e+05 1.086089e+05 1.086089e+05 1.089294e+05 1.095002e+05 1.095002e+05 1.101014e+05 1.103115e+05 1.103115e+05 1.107288e+05 1.111703e+05 1.111703e+05 1.115279e+05 1.117419e+05 1.120667e+05 1.120667e+05 1.122595e+05 1.126305e+05 1.128221e+05 1.131167e+05 1.132111e+05 1.018513e+05 1.044898e+05 1.044898e+05 1.044898e+05 1.046308e+05 1.036741e+05 1.036741e+05 1.036741e+05 1.038794e+05 1.038794e+05 1.048770e+05 1.048770e+05 1.048770e+05 1.049337e+05 1.048450e+05 1.014765e+05 1.039966e+05 1.039966e+05 1.038424e+05 1.045441e+05 1.045441e+05 1.045441e+05 1.044301e+05 1.043325e+05 1.083186e+05 1.083186e+05 1.083186e+05 1.081756e+05 1.024872e+05 1.024872e+05 1.024872e+05 1.023817e+05 1.022636e+05 1.022636e+05 1.043284e+05 1.043284e+05 1.036774e+05 1.035728e+05 1.018513e+05 1.018513e+05 1.030290e+05 1.030290e+05 1.030290e+05 1.029575e+05 1.027946e+05 1.027946e+05 1.029130e+05 1.040123e+05 1.040123e+05 1.040123e+05 1.040266e+05 1.038387e+05 1.042760e+05 1.042610e+05 1.028879e+05 1.028879e+05 1.028879e+05 1.026546e+05 1.007519e+05 1.001912e+05 9.971841e+04 1.001912e+05 1.073263e+05 1.073263e+05 1.073263e+05 1.086150e+05 1.086150e+05 1.086150e+05 1.083041e+05 9.905133e+04 9.883956e+04 9.905133e+04 9.905133e+04 1.067764e+05 1.067764e+05 1.067764e+05 1.067656e+05 1.095857e+05 1.095857e+05 1.095857e+05 1.095057e+05 1.109231e+05 1.109231e+05 1.109231e+05 1.106517e+05 1.106517e+05 9.998544e+04 9.998544e+04 9.998544e+04 9.987694e+04 1.014396e+05 1.014396e+05 1.014396e+05 1.012132e+05 1.012132e+05 1.122992e+05 1.122992e+05 1.122992e+05 1.124093e+05 1.048497e+05 1.048497e+05 1.048497e+05 1.048696e+05 1.048696e+05 9.829892e+04 9.840059e+04 1.110637e+05 1.110637e+05 1.110637e+05 1.110118e+05 1.118853e+05 1.118853e+05 1.118853e+05 1.120249e+05 1.120249e+05 1.060901e+05 1.060901e+05 1.060901e+05 1.060400e+05 1.114808e+05 1.114808e+05 1.114808e+05 1.113866e+05 9.996373e+04 1.082787e+05 1.082787e+05 1.082787e+05 1.067013e+05 1.067013e+05 1.067013e+05 1.066310e+05 1.052216e+05 1.052216e+05 1.052216e+05 1.051636e+05 1.027063e+05 1.019412e+05 1.019412e+05 1.019412e+05 1.018610e+05 1.041758e+05 1.041758e+05 1.041758e+05 1.041932e+05 1.041932e+05 9.840059e+04 9.840059e+04 9.829892e+04 1.109420e+05 1.109420e+05 1.109420e+05 1.112536e+05 1.112536e+05 1.048436e+05 1.050040e+05 1.050040e+05 1.094567e+05 1.094567e+05 1.094567e+05 1.097631e+05 1.097631e+05 1.091268e+05 1.091268e+05 1.091268e+05 1.092269e+05 9.998341e+04 9.974082e+04 9.998341e+04 9.998341e+04 1.001011e+05 1.038221e+05 1.038221e+05 1.038221e+05 1.040347e+05 1.043282e+05 1.046454e+05 1.046454e+05 1.023679e+05 1.023679e+05 1.019371e+05 1.019371e+05 1.050531e+05 1.050531e+05 1.050531e+05 1.054543e+05 1.054543e+05 1.020951e+05 1.020951e+05 1.020951e+05 1.020789e+05 1.019035e+05 1.033677e+05 1.029271e+05 1.068362e+05 1.068362e+05 1.068362e+05 1.067026e+05 1.079810e+05 1.079810e+05 1.079810e+05 1.077924e+05 1.053284e+05 1.053284e+05 1.053284e+05 1.091091e+05 1.091091e+05 1.091091e+05 1.024615e+05 1.024615e+05 1.024615e+05 1.101929e+05 1.101929e+05 1.101929e+05 1.000536e+05 1.000536e+05 1.000536e+05 1.000216e+05 9.984066e+04 1.026783e+05 1.026783e+05 1.026783e+05 1.003961e+05 1.003961e+05 1.004251e+05 1.059981e+05 1.059981e+05 1.059981e+05 1.061833e+05 1.033686e+05 1.033686e+05 1.033686e+05 1.033539e+05 1.022696e+05 1.022696e+05 1.119194e+05 1.119194e+05 1.119194e+05 1.117483e+05 9.905169e+04 9.905169e+04 9.905169e+04 9.905427e+04 1.008702e+05 1.008702e+05 1.008702e+05 1.009097e+05 1.110043e+05 1.110043e+05 1.110043e+05 1.071508e+05 1.071508e+05 1.071508e+05 1.072038e+05 1.037863e+05 1.037863e+05 1.037863e+05 1.038153e+05 1.036831e+05 1.036831e+05 1.036831e+05 1.036263e+05 1.051797e+05 1.051797e+05 1.051797e+05 1.052904e+05 1.128993e+05 1.128993e+05 1.128993e+05 1.123400e+05 1.123400e+05 1.123400e+05 1.123265e+05 1.118758e+05 1.118758e+05 1.118758e+05 1.117804e+05 1.110954e+05 1.110954e+05 1.110297e+05 1.070144e+05 1.070144e+05 1.069911e+05 1.010193e+05 1.010193e+05 1.010494e+05 1.044865e+05 1.044865e+05 1.044865e+05 1.045552e+05 1.058506e+05 1.058506e+05 1.058506e+05 1.123179e+05 1.123179e+05 1.122872e+05 1.064413e+05 1.064413e+05 1.063696e+05 1.046573e+05 1.115006e+05 1.114798e+05 1.016797e+05 1.016797e+05 1.015750e+05 1.128661e+05 1.128661e+05 1.128661e+05 1.129700e+05 1.056663e+05 1.056663e+05 1.104958e+05 1.104958e+05 1.104958e+05 1.130313e+05 1.130313e+05 1.130313e+05 1.130002e+05 1.130002e+05 1.125732e+05 1.125732e+05 1.125732e+05 1.126961e+05 1.120033e+05 1.120033e+05 1.120033e+05 1.119143e+05 1.119143e+05 1.024532e+05 1.024532e+05 1.024532e+05 1.022947e+05 1.022947e+05 1.120272e+05 1.120272e+05 1.122103e+05 1.122103e+05 1.126436e+05 1.126436e+05 1.126436e+05 1.109485e+05 1.109485e+05 1.109485e+05 1.111754e+05 1.017308e+05 1.017308e+05 1.017308e+05 1.017300e+05 1.017300e+05 9.874329e+04 9.874329e+04 9.874329e+04 9.896311e+04 9.896311e+04 1.041486e+05 1.041486e+05 1.041486e+05 1.045177e+05 1.045177e+05 1.074072e+05 1.074072e+05 1.074072e+05 1.075806e+05 1.075806e+05 1.088487e+05 1.088487e+05 1.088487e+05 1.091863e+05 1.093690e+05 1.093690e+05 1.103123e+05 1.103123e+05 1.103123e+05 1.099523e+05 1.099523e+05 1.008199e+05 1.008199e+05 1.008199e+05 1.009786e+05 1.009786e+05 1.032347e+05 1.032347e+05 1.032347e+05 1.037159e+05 1.037159e+05 1.033273e+05 1.033273e+05 1.028657e+05 1.028657e+05 1.058903e+05 1.058903e+05 1.062501e+05 1.062501e+05 1.033942e+05 1.029090e+05 1.029090e+05 1.054952e+05 1.054952e+05 1.054952e+05 1.055784e+05 1.055784e+05 1.048035e+05 1.048035e+05 1.024128e+05 1.024128e+05 1.024128e+05 1.025080e+05 1.042473e+05 1.011725e+05 1.009993e+05 1.031748e+05 1.031748e+05 1.031748e+05 1.032373e+05 1.032373e+05 1.010977e+05 1.010977e+05 1.008724e+05 1.007811e+05 1.008920e+05 1.096911e+05 1.096911e+05 1.096911e+05 1.094788e+05 1.107561e+05 1.107561e+05 1.105789e+05 1.039250e+05 1.039250e+05 1.039250e+05 9.934235e+04 9.934235e+04 9.934235e+04 9.924523e+04 9.919067e+04 1.124256e+05 1.124256e+05 1.124256e+05 1.053829e+05 1.011701e+05 9.975053e+04 9.975053e+04 1.116899e+05 1.116899e+05 1.077573e+05 1.078046e+05 1.078046e+05 1.078046e+05 1.088436e+05 1.088436e+05 1.088436e+05 1.088046e+05 1.136508e+05 1.133622e+05 1.133622e+05 1.131625e+05 1.131625e+05 1.131625e+05 1.132306e+05 1.025926e+05 1.025926e+05 1.024911e+05 1.030924e+05 1.133694e+05 1.133694e+05 1.124487e+05 1.124487e+05 1.037112e+05 1.037112e+05 1.005085e+05 1.005085e+05 1.005085e+05 1.131277e+05 1.131277e+05 1.131836e+05 9.835233e+04 9.835233e+04 9.850382e+04 1.120840e+05 1.129831e+05 1.128492e+05 1.128492e+05 1.128487e+05 1.075067e+05 1.075067e+05 1.075067e+05 1.075005e+05 1.099157e+05 1.098487e+05 1.135730e+05 1.132974e+05 1.108503e+05 1.108503e+05 1.101051e+05 1.101051e+05 1.101051e+05 1.101043e+05 1.034863e+05 1.034863e+05 1.033296e+05 1.033296e+05 1.067166e+05 1.127066e+05 1.127066e+05 1.125891e+05 1.085138e+05 1.085138e+05 1.085138e+05 1.002869e+05 1.134326e+05 1.131562e+05 1.093730e+05 1.093730e+05 1.093730e+05 1.092838e+05 1.002412e+05 1.002412e+05 1.001940e+05 1.091306e+05 1.091306e+05 1.091310e+05 1.014586e+05 1.014586e+05 1.041751e+05 1.041751e+05 1.132591e+05 1.113558e+05 1.113526e+05 1.089499e+05 1.130591e+05 1.130591e+05 1.103930e+05 1.008545e+05 1.007335e+05 1.007335e+05 1.029504e+05 1.029504e+05 1.028419e+05 1.028419e+05 1.125579e+05 1.125579e+05 1.079506e+05 1.130972e+05 1.072177e+05 1.072177e+05 1.072984e+05 1.095939e+05 1.095939e+05 1.095939e+05 1.132839e+05 1.132839e+05 1.052314e+05 9.966571e+04 9.966571e+04 1.098008e+05 1.097401e+05 1.105713e+05 1.065478e+05 9.861322e+04 9.876569e+04 1.127564e+05 1.087003e+05 9.890252e+04 9.890252e+04 9.890252e+04 9.873102e+04 1.123920e+05 9.848664e+04 1.008640e+05 1.008640e+05 1.103884e+05 1.098975e+05 1.021070e+05 1.021070e+05 1.128371e+05 1.128371e+05 9.936240e+04 9.936240e+04 1.030162e+05 1.082536e+05 1.082536e+05 1.015341e+05 1.030163e+05 1.050618e+05 1.050116e+05 1.079794e+05 1.079794e+05 1.077850e+05 1.077850e+05 1.012196e+05 1.050451e+05 1.131935e+05 9.886807e+04 1.048246e+05 1.102151e+05 1.117055e+05 9.873097e+04 1.018867e+05 1.020648e+05 1.028295e+05 1.099943e+05 1.099373e+05 1.132273e+05 1.132273e+05 1.080229e+05 1.078526e+05 1.109921e+05 1.024156e+05 1.118240e+05 1.118240e+05 1.106210e+05 1.106210e+05 1.106210e+05 1.044294e+05 1.077204e+05 1.004900e+05 1.121404e+05 1.122199e+05 1.122366e+05 1.122366e+05 1.122366e+05 1.095413e+05 1.095413e+05 1.095413e+05 1.096351e+05 1.131278e+05 1.075455e+05 1.075332e+05 1.047284e+05 1.047284e+05 1.047284e+05 1.103209e+05 1.103209e+05 1.103209e+05 1.104753e+05 1.090227e+05 1.090227e+05 1.091541e+05 1.068239e+05 1.067030e+05 1.012072e+05 1.012644e+05 1.007673e+05 1.007673e+05 1.006843e+05 9.957612e+04 9.957612e+04 9.949025e+04 9.949025e+04 1.025546e+05 1.129196e+05 1.040678e+05 1.131163e+05 1.130198e+05 1.129159e+05 1.129159e+05 1.128069e+05 1.128069e+05 1.106294e+05 1.109323e+05 1.062668e+05 1.124310e+05 1.124310e+05 1.106563e+05 1.106563e+05 1.120433e+05 1.055662e+05 1.055662e+05 1.055662e+05 1.114132e+05 1.055051e+05 9.992452e+04 9.992452e+04 9.992452e+04 9.996040e+04 9.996040e+04 1.093189e+05 1.093439e+05 1.129458e+05 1.129458e+05 1.131013e+05 9.918024e+04 9.927026e+04 1.088011e+05 1.088011e+05 1.080149e+05 1.096925e+05 1.124850e+05 1.003282e+05 1.003282e+05 1.003282e+05 1.005288e+05 1.130140e+05 1.130140e+05 1.129450e+05 1.128546e+05 1.126458e+05 1.126458e+05 1.030922e+05 1.030922e+05 1.030922e+05 1.034578e+05 1.009541e+05 1.034930e+05 1.033265e+05 1.033265e+05 1.071018e+05 1.062422e+05 1.062422e+05 1.064551e+05 1.108798e+05 1.106063e+05 1.106063e+05 1.125352e+05 1.125352e+05 9.840774e+04 1.073915e+05 1.073915e+05 1.045165e+05 1.042801e+05 1.042801e+05 1.058545e+05 1.058848e+05 1.073792e+05 1.121007e+05 1.007876e+05 1.007876e+05 1.007876e+05 1.021090e+05 1.124689e+05 1.123980e+05 1.054761e+05 1.054761e+05 1.120302e+05 1.120302e+05 1.120302e+05 1.092029e+05 1.092029e+05 1.092029e+05 1.078822e+05 1.027486e+05 1.089287e+05 1.089287e+05 1.089287e+05 9.938328e+04 1.129082e+05 1.022025e+05 1.025072e+05 1.070960e+05 1.071059e+05 1.071059e+05 1.085385e+05 1.065864e+05 1.126245e+05 1.126892e+05 1.126892e+05 1.061633e+05 1.117137e+05 1.117137e+05 1.116765e+05 1.115435e+05 1.120420e+05 1.118345e+05 1.118345e+05 1.113936e+05 1.087032e+05 1.087032e+05 1.086005e+05 1.086005e+05 1.116385e+05 1.116385e+05 1.114003e+05 1.114003e+05 1.058021e+05 1.127257e+05 1.125107e+05 1.067317e+05 1.067317e+05 1.102056e+05 9.874138e+04 1.104913e+05 1.112044e+05 1.099895e+05 1.099895e+05 1.046671e+05 1.010100e+05 1.092682e+05 1.118999e+05 1.119731e+05 1.119731e+05 1.006630e+05 1.093298e+05 1.093298e+05 1.095423e+05 1.056061e+05 1.056061e+05 1.056061e+05 1.037071e+05 1.082592e+05 1.000505e+05 1.000505e+05 1.001175e+05 1.102612e+05 1.102612e+05 1.091139e+05 1.121633e+05 1.121633e+05 1.121633e+05 1.074529e+05 1.123938e+05 1.079261e+05 1.097986e+05 1.096833e+05 1.065009e+05 1.063593e+05 1.063593e+05 1.030009e+05 1.028513e+05 1.028513e+05 9.959770e+04 9.944676e+04 1.026135e+05 1.024190e+05 1.024190e+05 1.121511e+05 1.121511e+05 1.121511e+05 1.116410e+05 1.114373e+05 1.114373e+05 1.039367e+05 1.122675e+05 1.099000e+05 1.068461e+05 1.068461e+05 9.846374e+04 9.846374e+04 1.015371e+05 1.125115e+05 1.125115e+05 1.044359e+05 1.105874e+05 1.103074e+05 1.103074e+05 1.077156e+05 1.077156e+05 1.101616e+05 1.101616e+05 1.063556e+05 1.059769e+05 1.019435e+05 1.094744e+05 1.122916e+05 1.122916e+05 1.115346e+05 1.089010e+05 1.089010e+05 1.085603e+05 1.085603e+05 9.841477e+04 1.060306e+05 1.031196e+05 1.033121e+05 1.071035e+05 1.069259e+05 1.014718e+05 1.082815e+05 1.082815e+05 1.082815e+05 1.117751e+05 1.117751e+05 1.120185e+05 1.018459e+05 1.018459e+05 1.018459e+05 1.006405e+05 1.006405e+05 1.103675e+05 1.103675e+05 1.106255e+05 1.118937e+05 1.117813e+05 1.054605e+05 1.111430e+05 1.111430e+05 1.110063e+05 1.066619e+05 1.114568e+05 1.114568e+05 1.079544e+05 1.028315e+05 1.028315e+05 1.028315e+05 1.024692e+05 1.091106e+05 9.887578e+04 9.922132e+04 9.959531e+04 1.001833e+05 1.089425e+05 1.087113e+05 1.037676e+05 1.121463e+05 1.115544e+05 1.115544e+05 1.115544e+05 1.116145e+05 1.034815e+05 1.117462e+05 1.106188e+05 1.107074e+05 1.080332e+05 1.080332e+05 1.080332e+05 1.052204e+05 1.052204e+05 1.052204e+05 1.058364e+05 1.058364e+05 1.113432e+05 1.111618e+05 1.111618e+05 1.111618e+05 1.058096e+05 1.098812e+05 1.098812e+05 1.098812e+05 1.063745e+05 1.083798e+05 1.083798e+05 1.083798e+05 1.013467e+05 1.013467e+05 1.013467e+05 9.998667e+04 1.031472e+05 1.106940e+05 1.106940e+05 1.098131e+05 1.115984e+05 1.044596e+05 1.040063e+05 1.040063e+05 1.040063e+05 1.071624e+05 1.104656e+05 1.103223e+05 1.016777e+05 1.014244e+05 1.064780e+05 9.914799e+04 1.108543e+05 1.108543e+05 1.112076e+05 1.111759e+05 1.091575e+05 1.060414e+05 1.108854e+05 1.038641e+05 1.038641e+05 1.055705e+05 1.068735e+05 1.050646e+05 1.050646e+05 1.049255e+05 1.045011e+05 1.008454e+05 1.008454e+05 1.080037e+05 1.080037e+05 1.082524e+05 1.086837e+05 1.104855e+05 1.103716e+05 1.061090e+05 1.064278e+05 1.091454e+05 1.114364e+05 1.112544e+05 1.012069e+05 9.969176e+04 9.969176e+04 9.969176e+04 1.105296e+05 1.105296e+05 1.075216e+05 1.075216e+05 1.072849e+05 1.101210e+05 1.089355e+05 1.086390e+05 1.086390e+05 1.027604e+05 1.027604e+05 1.030896e+05 1.020715e+05 1.020715e+05 1.053619e+05 1.018786e+05 1.015493e+05 1.041263e+05 1.034196e+05 1.043519e+05 1.047765e+05 1.088580e+05 1.075809e+05 1.075809e+05 1.075809e+05 1.081412e+05 1.101951e+05 1.108691e+05 1.059656e+05 1.101765e+05 1.073527e+05 1.073527e+05 1.077750e+05 1.066773e+05 1.066773e+05 1.064215e+05 1.064215e+05 1.047365e+05 1.049066e+05 9.981701e+04 1.000164e+05 1.060914e+05 1.024938e+05 1.071268e+05 1.071268e+05 1.053309e+05 1.053309e+05 1.053309e+05 1.049810e+05 1.099462e+05 1.097034e+05 1.055579e+05 1.012822e+05 1.041477e+05 1.081005e+05 1.059433e+05 1.059433e+05 1.071617e+05 1.071617e+05 1.019605e+05 1.019605e+05 1.066427e+05 1.098124e+05 1.090169e+05 1.090169e+05 1.086054e+05 1.002938e+05 1.071113e+05 1.094636e+05 1.043007e+05 1.043007e+05 1.039903e+05 1.053807e+05 1.056499e+05 1.087378e+05 1.087378e+05 1.043600e+05 1.043600e+05 1.025273e+05 1.020535e+05 1.020535e+05 1.049117e+05 1.081055e+05 1.014142e+05 1.067057e+05 1.077207e+05 1.084941e+05 1.003781e+05 1.023761e+05 1.069571e+05 1.069571e+05 1.076749e+05 1.006664e+05 1.001011e+05 1.016301e+05 1.016301e+05 1.016301e+05 1.020916e+05 1.049151e+05 1.049151e+05 1.075518e+05 1.075518e+05 1.070123e+05 1.070123e+05 1.053816e+05 1.009917e+05 1.007406e+05 1.059383e+05 1.059383e+05 1.059383e+05 1.058422e+05 1.037194e+05 1.037194e+05 1.059480e+05 1.059480e+05 1.049641e+05 1.049641e+05 1.048243e+05 1.000704e+05 1.000704e+05 1.000704e+05 9.974682e+04 1.045320e+05 1.040578e+05 1.040578e+05 1.012505e+05 1.019145e+05 1.001912e+05 1.004785e+05 1.008927e+05 1.008927e+05 1.041678e+05 1.063044e+05 1.026610e+05 1.027468e+05 1.041145e+05 1.023119e+05 1.023119e+05 1.051278e+05 1.050081e+05 1.064644e+05 1.014584e+05 1.014584e+05 1.010467e+05 1.058153e+05 1.058153e+05 1.052151e+05 1.013819e+05 1.010377e+05 1.010377e+05 1.010377e+05 1.006563e+05 1.048109e+05 1.008002e+05 1.017638e+05 1.035063e+05 1.008002e+05 1.020711e+05 1.011743e+05 1.011743e+05 1.031404e+05 1.029694e+05 1.019030e+05 1.017506e+05 1.030120e+05 1.030120e+05 1.030120e+05 1.017608e+05 1.032985e+05 1.032985e+05 1.032985e+05 1.027493e+05 1.027493e+05 1.023987e+05 1.019496e+05 1.029694e+05 1.022006e+05 1.020783e+05 1.026959e+05 1.023246e+05 1.025331e+05 1.029393e+05 1.029393e+05 1.018872e+05 1.018872e+05 1.021176e+05 1.030074e+05 1.030074e+05 1.030074e+05 1.031128e+05 1.031128e+05 1.026782e+05 1.026782e+05 1.026782e+05 1.079655e+05 1.082313e+05 1.082313e+05 1.082313e+05 1.014765e+05 1.014765e+05 1.083293e+05 1.083293e+05 1.083293e+05 1.086070e+05 1.086070e+05 1.020193e+05 1.017007e+05 1.077903e+05 1.077903e+05 1.075554e+05 1.014538e+05 1.087907e+05 1.085932e+05 1.086585e+05 1.011725e+05 1.015892e+05 1.016830e+05 1.033133e+05 1.033133e+05 1.033803e+05 1.120659e+05 1.054934e+05 1.054934e+05 1.054934e+05 1.049993e+05 1.069979e+05 1.069979e+05 1.069979e+05 1.071578e+05 1.069701e+05 1.069701e+05 1.105991e+05 1.059240e+05 1.059240e+05 1.059240e+05 1.058703e+05 1.038459e+05 1.117438e+05 1.117438e+05 1.117438e+05 1.069200e+05 1.101866e+05 1.101866e+05 1.092915e+05 1.092915e+05 1.092915e+05 1.064444e+05 1.064444e+05 1.064444e+05 1.073148e+05 1.064924e+05 1.064924e+05 1.066193e+05 1.077364e+05 1.054152e+05 1.066095e+05 1.062722e+05 1.061266e+05 1.051987e+05 1.048439e+05 1.057382e+05 1.045642e+05 1.041400e+05 1.045048e+05 1.045048e+05 1.039984e+05 1.039984e+05 1.039984e+05 1.032500e+05 1.111756e+05 1.075605e+05 1.075605e+05 1.065185e+05 1.060432e+05 1.052707e+05 1.052707e+05 1.100314e+05 1.100314e+05 1.088893e+05 1.088893e+05 1.078002e+05 1.072915e+05 1.057259e+05 1.048008e+05 1.040257e+05 1.040257e+05 1.033520e+05 1.035983e+05 1.111129e+05 1.111129e+05 1.051302e+05 1.041537e+05 1.041537e+05 1.045451e+05 1.042009e+05 1.039396e+05 1.036490e+05 1.036490e+05 1.036490e+05 1.036949e+05 1.036949e+05 1.035666e+05 1.034932e+05 1.034932e+05 1.034932e+05 1.040738e+05 1.040738e+05 1.016930e+05 1.033943e+05 1.033943e+05 1.034628e+05 1.033593e+05 1.033593e+05 1.018145e+05 1.021422e+05 1.018247e+05 1.033131e+05 1.033131e+05 1.033131e+05 1.032456e+05 1.035573e+05 1.025892e+05 1.032851e+05 1.085553e+05 1.030997e+05 1.029238e+05 1.031832e+05 1.031548e+05 1.089083e+05 1.097129e+05 1.097129e+05 1.102656e+05 1.102656e+05 1.108564e+05 1.108564e+05 1.108564e+05 1.113026e+05 1.114665e+05 1.114665e+05 1.114665e+05 1.124103e+05 1.032736e+05 1.033805e+05 1.033805e+05 1.033805e+05 1.034882e+05 1.036328e+05 1.037276e+05 1.050507e+05 1.035926e+05 1.037529e+05 1.038246e+05 1.037857e+05 1.039894e+05 1.039139e+05 1.037169e+05 1.034086e+05 1.035860e+05 1.034396e+05 1.034396e+05 1.033237e+05 1.033237e+05 1.035944e+05 1.034320e+05 1.032814e+05 1.032316e+05 1.090423e+05 1.094583e+05 1.112122e+05 1.128431e+05 1.134543e+05 1.134710e+05 1.135031e+05 1.135548e+05 1.134758e+05 1.134403e+05 1.134087e+05 1.133646e+05 1.133440e+05 1.133423e+05 1.133116e+05 1.026073e+05 1.026073e+05 1.029573e+05 1.029573e+05 1.030470e+05 1.031637e+05 1.032440e+05 1.032440e+05 1.032440e+05 1.032506e+05 1.031298e+05 1.031298e+05 1.029389e+05 1.029389e+05 1.029389e+05 1.039939e+05 1.039939e+05 1.039939e+05 1.040840e+05 1.040840e+05 1.028752e+05 1.028752e+05 1.028752e+05 1.029821e+05 1.026073e+05 1.026009e+05 1.026009e+05 1.032358e+05 1.035067e+05 1.035067e+05 1.130585e+05 1.130585e+05 1.130585e+05 1.132310e+05 1.132310e+05 1.029320e+05 1.030990e+05 1.030990e+05 1.131417e+05 1.131417e+05 1.130488e+05 1.103049e+05 1.103049e+05 1.103049e+05 1.085701e+05 1.085701e+05 1.085701e+05 1.081381e+05 1.081381e+05 1.033509e+05 1.121608e+05 1.121608e+05 1.121608e+05 1.120592e+05 1.132844e+05 1.132844e+05 1.132844e+05 1.132130e+05 1.131063e+05 1.127145e+05 1.127145e+05 1.127145e+05 1.132588e+05 1.130659e+05 1.130659e+05 1.130659e+05 1.131216e+05 1.094125e+05 1.098815e+05 1.094125e+05 1.094125e+05 1.042703e+05 1.042703e+05 1.025458e+05 1.105424e+05 1.105424e+05 1.132659e+05 1.133423e+05 1.132418e+05 1.132418e+05 1.131216e+05 1.128221e+05 1.126305e+05 1.130882e+05 1.130185e+05 1.128185e+05 1.128185e+05 1.128130e+05 1.126731e+05 1.128727e+05 1.128130e+05 1.127174e+05 1.123748e+05 1.123748e+05 1.124476e+05 1.124476e+05 1.125635e+05 1.122996e+05 1.122962e+05 1.121164e+05 1.121164e+05 1.119610e+05 1.121067e+05 1.117017e+05 1.112439e+05 1.112439e+05 1.098815e+05 1.088460e+05 1.088460e+05 1.084015e+05 1.084015e+05 1.080419e+05 1.077209e+05 1.067256e+05 1.036960e+05 1.025458e+05 1.025458e+05 1.034536e+05 1.034536e+05 1.034536e+05 1.034153e+05 1.030754e+05 1.035413e+05 1.035413e+05 1.035413e+05 1.035211e+05 1.038263e+05 1.038263e+05 1.038263e+05 1.037829e+05 1.037043e+05 1.047576e+05 1.047576e+05 1.047576e+05 1.049048e+05 1.059845e+05 1.059845e+05 1.059845e+05 1.059220e+05 1.056890e+05 1.049755e+05 1.049755e+05 1.048246e+05 1.073304e+05 1.073304e+05 1.073304e+05 1.075343e+05 1.075343e+05 1.069259e+05 1.069259e+05 1.069259e+05 1.041250e+05 1.041250e+05 1.068447e+05 1.068447e+05 1.068447e+05 1.066643e+05 1.066643e+05 1.093379e+05 1.093379e+05 1.093379e+05 1.082541e+05 1.082541e+05 1.082541e+05 1.061282e+05 1.061282e+05 1.061282e+05 1.037842e+05 1.081532e+05 1.079744e+05 1.067554e+05 1.065288e+05 1.092800e+05 1.084307e+05 1.084307e+05 1.058126e+05 1.058126e+05 1.066792e+05 1.063396e+05 1.076569e+05 1.076569e+05 1.076569e+05 1.092891e+05 1.105424e+05 1.067631e+05 1.054187e+05 1.054187e+05 1.054187e+05 1.075064e+05 1.063221e+05 1.054822e+05 1.050374e+05 1.046105e+05 1.058120e+05 1.046074e+05 1.044898e+05 1.044257e+05 1.044257e+05 1.032481e+05 1.107288e+05 1.107288e+05 1.080807e+05 1.052455e+05 1.052455e+05 1.075168e+05 1.115874e+05 1.048118e+05 1.048118e+05 1.042059e+05 1.042059e+05 1.042059e+05 1.070493e+05 1.085003e+05 1.042653e+05 1.047354e+05 1.042468e+05 1.039920e+05 1.039655e+05 1.039655e+05 1.039655e+05 1.037452e+05 1.037452e+05 1.038530e+05 1.038051e+05 1.038051e+05 1.036346e+05 1.036037e+05 1.033509e+05 1.035012e+05 1.035012e+05 1.032123e+05 1.033015e+05 1.083332e+05 1.103529e+05 1.103529e+05 1.113300e+05 1.113300e+05 1.095610e+05 1.030950e+05 1.055081e+05 1.079297e+05 1.086089e+05 1.087787e+05 1.093027e+05 1.093027e+05 1.099024e+05 1.099024e+05 1.099024e+05 1.104256e+05 1.108446e+05 1.111703e+05 1.115279e+05 1.115279e+05 1.115378e+05 1.125202e+05 1.042508e+05 1.045707e+05 1.091269e+05 1.117419e+05 1.047477e+05 1.049862e+05 1.041723e+05 1.039592e+05 1.043226e+05 1.039992e+05 1.036305e+05 1.045456e+05 1.036805e+05 1.036805e+05 1.035837e+05 1.035652e+05 1.033568e+05 1.033514e+05 1.033514e+05 1.033168e+05 1.034252e+05 1.034415e+05 1.087637e+05 1.096404e+05 1.106467e+05 1.118674e+05 1.106463e+05 1.110184e+05 1.097882e+05 1.116944e+05 1.110102e+05 1.032865e+05 1.029573e+05 1.134543e+05 1.135422e+05 1.136508e+05 1.135730e+05 1.134970e+05 1.135405e+05 1.134677e+05 1.134326e+05 1.134036e+05 1.133927e+05 1.133898e+05 1.133746e+05 1.133522e+05 1.133029e+05 1.133182e+05 1.131886e+05 1.131622e+05 1.131083e+05 1.130772e+05 1.129813e+05 1.129322e+05 1.128121e+05 1.127429e+05 1.127911e+05 1.126083e+05 1.127377e+05 1.124935e+05 1.125618e+05 1.123959e+05 1.122004e+05 1.122778e+05 1.120960e+05 1.121534e+05 1.119993e+05 1.118891e+05 1.116612e+05 1.117437e+05 1.115829e+05 1.113558e+05 1.112034e+05 1.111115e+05 1.110075e+05 1.110102e+05 1.108066e+05 1.107006e+05 1.107882e+05 1.105685e+05 1.103884e+05 1.102305e+05 1.101027e+05 1.099716e+05 1.099157e+05 1.100670e+05 1.097076e+05 1.095493e+05 1.094238e+05 1.092454e+05 1.091215e+05 1.090042e+05 1.089263e+05 1.087565e+05 1.086344e+05 1.084246e+05 1.082634e+05 1.080533e+05 1.079324e+05 1.077573e+05 1.076233e+05 1.074703e+05 1.073314e+05 1.071415e+05 1.069883e+05 1.068557e+05 1.067451e+05 1.065890e+05 1.064649e+05 1.063087e+05 1.061406e+05 1.059673e+05 1.057709e+05 1.056174e+05 1.054686e+05 1.052684e+05 1.051128e+05 1.049497e+05 1.047839e+05 1.046147e+05 1.044491e+05 1.042893e+05 1.041470e+05 1.039889e+05 1.037881e+05 1.036336e+05 1.034224e+05 1.032571e+05 1.030924e+05 1.028811e+05 1.027063e+05 1.025455e+05 1.023807e+05 1.022008e+05 1.020237e+05 1.018571e+05 1.016528e+05 1.014868e+05 1.012686e+05 1.011049e+05 1.009403e+05 1.007782e+05 1.006296e+05 1.004784e+05 1.002869e+05 1.001304e+05 9.996373e+04 9.979704e+04 9.964811e+04 9.943142e+04 9.926221e+04 9.910419e+04 9.893257e+04 9.876569e+04 9.861322e+04 9.842407e+04 9.842407e+04 1.018999e+05 1.018999e+05 1.028531e+05 1.029330e+05 1.030290e+05 1.031548e+05 1.032500e+05 1.032500e+05 1.032657e+05 1.033168e+05 1.033568e+05 1.033568e+05 1.034865e+05 1.034865e+05 1.036305e+05 1.037043e+05 1.037347e+05 1.038445e+05 1.039592e+05 1.042508e+05 1.042508e+05 1.045707e+05 1.045707e+05 1.047477e+05 1.051483e+05 1.052455e+05 1.055081e+05 1.056381e+05 1.060082e+05 1.062686e+05 1.065288e+05 1.069618e+05 1.070876e+05 1.075343e+05 1.079566e+05 1.082936e+05 1.086089e+05 1.086089e+05 1.089294e+05 1.095002e+05 1.095002e+05 1.101014e+05 1.103115e+05 1.103115e+05 1.107288e+05 1.111703e+05 1.111703e+05 1.115279e+05 1.117419e+05 1.120667e+05 1.120667e+05 1.122595e+05 1.126305e+05 1.128221e+05 1.131167e+05 1.132111e+05 1.018513e+05 1.044898e+05 1.044898e+05 1.044898e+05 1.046308e+05 1.036741e+05 1.036741e+05 1.036741e+05 1.038794e+05 1.038794e+05 1.048770e+05 1.048770e+05 1.048770e+05 1.049337e+05 1.048450e+05 1.014765e+05 1.039966e+05 1.039966e+05 1.038424e+05 1.045441e+05 1.045441e+05 1.045441e+05 1.044301e+05 1.043325e+05 1.083186e+05 1.083186e+05 1.083186e+05 1.081756e+05 1.024872e+05 1.024872e+05 1.024872e+05 1.023817e+05 1.022636e+05 1.022636e+05 1.043284e+05 1.043284e+05 1.036774e+05 1.035728e+05 1.018513e+05 1.018513e+05 1.030290e+05 1.030290e+05 1.030290e+05 1.029575e+05 1.027946e+05 1.027946e+05 1.029130e+05 1.040123e+05 1.040123e+05 1.040123e+05 1.040266e+05 1.038387e+05 1.042760e+05 1.042610e+05 1.028879e+05 1.028879e+05 1.028879e+05 1.026546e+05 1.007519e+05 1.001912e+05 9.971841e+04 1.001912e+05 1.073263e+05 1.073263e+05 1.073263e+05 1.086150e+05 1.086150e+05 1.086150e+05 1.083041e+05 9.905133e+04 9.883956e+04 9.905133e+04 9.905133e+04 1.067764e+05 1.067764e+05 1.067764e+05 1.067656e+05 1.095857e+05 1.095857e+05 1.095857e+05 1.095057e+05 1.109231e+05 1.109231e+05 1.109231e+05 1.106517e+05 1.106517e+05 9.998544e+04 9.998544e+04 9.998544e+04 9.987694e+04 1.014396e+05 1.014396e+05 1.014396e+05 1.012132e+05 1.012132e+05 1.122992e+05 1.122992e+05 1.122992e+05 1.124093e+05 1.048497e+05 1.048497e+05 1.048497e+05 1.048696e+05 1.048696e+05 9.829892e+04 9.840059e+04 1.110637e+05 1.110637e+05 1.110637e+05 1.110118e+05 1.118853e+05 1.118853e+05 1.118853e+05 1.120249e+05 1.120249e+05 1.060901e+05 1.060901e+05 1.060901e+05 1.060400e+05 1.114808e+05 1.114808e+05 1.114808e+05 1.113866e+05 9.996373e+04 1.082787e+05 1.082787e+05 1.082787e+05 1.067013e+05 1.067013e+05 1.067013e+05 1.066310e+05 1.052216e+05 1.052216e+05 1.052216e+05 1.051636e+05 1.027063e+05 1.019412e+05 1.019412e+05 1.019412e+05 1.018610e+05 1.041758e+05 1.041758e+05 1.041758e+05 1.041932e+05 1.041932e+05 9.840059e+04 9.840059e+04 9.829892e+04 1.109420e+05 1.109420e+05 1.109420e+05 1.112536e+05 1.112536e+05 1.048436e+05 1.050040e+05 1.050040e+05 1.094567e+05 1.094567e+05 1.094567e+05 1.097631e+05 1.097631e+05 1.091268e+05 1.091268e+05 1.091268e+05 1.092269e+05 9.998341e+04 9.974082e+04 9.998341e+04 9.998341e+04 1.001011e+05 1.038221e+05 1.038221e+05 1.038221e+05 1.040347e+05 1.043282e+05 1.046454e+05 1.046454e+05 1.023679e+05 1.023679e+05 1.019371e+05 1.019371e+05 1.050531e+05 1.050531e+05 1.050531e+05 1.054543e+05 1.054543e+05 1.020951e+05 1.020951e+05 1.020951e+05 1.020789e+05 1.019035e+05 1.033677e+05 1.029271e+05 1.068362e+05 1.068362e+05 1.068362e+05 1.067026e+05 1.079810e+05 1.079810e+05 1.079810e+05 1.077924e+05 1.053284e+05 1.053284e+05 1.053284e+05 1.091091e+05 1.091091e+05 1.091091e+05 1.024615e+05 1.024615e+05 1.024615e+05 1.101929e+05 1.101929e+05 1.101929e+05 1.000536e+05 1.000536e+05 1.000536e+05 1.000216e+05 9.984066e+04 1.026783e+05 1.026783e+05 1.026783e+05 1.003961e+05 1.003961e+05 1.004251e+05 1.059981e+05 1.059981e+05 1.059981e+05 1.061833e+05 1.033686e+05 1.033686e+05 1.033686e+05 1.033539e+05 1.022696e+05 1.022696e+05 1.119194e+05 1.119194e+05 1.119194e+05 1.117483e+05 9.905169e+04 9.905169e+04 9.905169e+04 9.905427e+04 1.008702e+05 1.008702e+05 1.008702e+05 1.009097e+05 1.110043e+05 1.110043e+05 1.110043e+05 1.071508e+05 1.071508e+05 1.071508e+05 1.072038e+05 1.037863e+05 1.037863e+05 1.037863e+05 1.038153e+05 1.036831e+05 1.036831e+05 1.036831e+05 1.036263e+05 1.051797e+05 1.051797e+05 1.051797e+05 1.052904e+05 1.