<?xml version="1.0"?>
 <VTKFile type="UnstructuredGrid" version="1.0" byte_order="LittleEndian" header_type="UInt64">
  <UnstructuredGrid>
    <FieldData>
     <DataArray type="Float64" Name="TimeValue" NumberOfTuples="1" format="ascii">
9e-05
     </DataArray>
    </FieldData>
   <Piece NumberOfPoints="3632" NumberOfCells="3379">
    <PointData>
     <DataArray type="Float64" Name="pointP" format="ascii">
1.445716e+05 1.445716e+05 1.444399e+05 1.442401e+05 1.441449e+05 1.440291e+05 1.438433e+05 1.436248e+05 1.434460e+05 1.432572e+05 1.430560e+05 1.428464e+05 1.426255e+05 1.423967e+05 1.421952e+05 1.418587e+05 1.416377e+05 1.414287e+05 1.411351e+05 1.408458e+05 1.405887e+05 1.402797e+05 1.399686e+05 1.396411e+05 1.393004e+05 1.389115e+05 1.385773e+05 1.382609e+05 1.379055e+05 1.374811e+05 1.371491e+05 1.367370e+05 1.363567e+05 1.358924e+05 1.354111e+05 1.350841e+05 1.346673e+05 1.342302e+05 1.337116e+05 1.333033e+05 1.328495e+05 1.323717e+05 1.319378e+05 1.314066e+05 1.308953e+05 1.304384e+05 1.299850e+05 1.294978e+05 1.288444e+05 1.283157e+05 1.278071e+05 1.272699e+05 1.267300e+05 1.262254e+05 1.256065e+05 1.251118e+05 1.245630e+05 1.240322e+05 1.234676e+05 1.228979e+05 1.223438e+05 1.217782e+05 1.211459e+05 1.205910e+05 1.200203e+05 1.194018e+05 1.187139e+05 1.181546e+05 1.175776e+05 1.169989e+05 1.163379e+05 1.157396e+05 1.151338e+05 1.145323e+05 1.138604e+05 1.132690e+05 1.126018e+05 1.119664e+05 1.113152e+05 1.107479e+05 1.100188e+05 1.093554e+05 1.087078e+05 1.080374e+05 1.074375e+05 1.068161e+05 1.061927e+05 1.055642e+05 1.048580e+05 1.041959e+05 1.035585e+05 1.029162e+05 1.023573e+05 1.016793e+05 1.010300e+05 1.004448e+05 9.977027e+04 9.914143e+04 9.853442e+04 9.777758e+04 9.717767e+04 9.656356e+04 9.600512e+04 9.528867e+04 9.468373e+04 9.408390e+04 9.348000e+04 9.283437e+04 9.223136e+04 9.165490e+04 9.107968e+04 9.049099e+04 8.991102e+04 8.922825e+04 8.863477e+04 8.797146e+04 8.738422e+04 8.684637e+04 8.625294e+04 8.567228e+04 8.513941e+04 8.458848e+04 8.401565e+04 8.346099e+04 8.292762e+04 8.234479e+04 8.186741e+04 8.129823e+04 8.074744e+04 8.026426e+04 7.978892e+04 7.915387e+04 7.870278e+04 7.823331e+04 7.782127e+04 7.727915e+04 7.680187e+04 7.640609e+04 7.586860e+04 7.547931e+04 7.507276e+04 7.453914e+04 7.414697e+04 7.371636e+04 7.326809e+04 7.289356e+04 7.250619e+04 7.208990e+04 7.168399e+04 7.138058e+04 7.104305e+04 7.061362e+04 7.025518e+04 6.993038e+04 6.956645e+04 6.926386e+04 6.899460e+04 6.857221e+04 6.829893e+04 6.800386e+04 6.774627e+04 6.743140e+04 6.719078e+04 6.691635e+04 6.666400e+04 6.645857e+04 6.625647e+04 6.607151e+04 6.586892e+04 6.571017e+04 6.544352e+04 6.526913e+04 6.509710e+04 6.495253e+04 6.483681e+04 6.465848e+04 6.454360e+04 6.441762e+04 6.428155e+04 6.419282e+04 6.413360e+04 1.025400e+05 1.025400e+05 1.025400e+05 1.041797e+05 1.041797e+05 1.041797e+05 1.045699e+05 1.042450e+05 1.063375e+05 1.051999e+05 1.086006e+05 1.086006e+05 1.086006e+05 1.085504e+05 9.653158e+04 9.653158e+04 9.653158e+04 9.646892e+04 9.712169e+04 1.315760e+05 1.315760e+05 1.315760e+05 1.314816e+05 1.311441e+05 1.311441e+05 1.311441e+05 1.303377e+05 9.940203e+04 9.940203e+04 9.940203e+04 1.000480e+05 1.005893e+05 1.005664e+05 7.876104e+04 7.876104e+04 7.876104e+04 7.779353e+04 7.779353e+04 1.302629e+05 1.302629e+05 1.302629e+05 1.296999e+05 7.294928e+04 7.294928e+04 7.294928e+04 7.206213e+04 7.206213e+04 1.425768e+05 1.425768e+05 1.425768e+05 1.137087e+05 1.137087e+05 1.137087e+05 1.140942e+05 1.076264e+05 1.076264e+05 1.076264e+05 1.279076e+05 1.279076e+05 1.279076e+05 1.279220e+05 8.022731e+04 8.022731e+04 8.028678e+04 8.028678e+04 1.159625e+05 1.159625e+05 1.164419e+05 1.288692e+05 1.288692e+05 1.288692e+05 1.294811e+05 1.294811e+05 6.863403e+04 6.863403e+04 6.863403e+04 6.946310e+04 6.946310e+04 9.905688e+04 9.905688e+04 9.905688e+04 9.811736e+04 9.811736e+04 1.325480e+05 1.325480e+05 1.168052e+05 1.168052e+05 1.168052e+05 1.169505e+05 1.077503e+05 1.077503e+05 1.077503e+05 1.074850e+05 1.075418e+05 1.181546e+05 1.181546e+05 1.181546e+05 1.146709e+05 1.146709e+05 1.149129e+05 1.350841e+05 1.353208e+05 1.353208e+05 6.495253e+04 6.545659e+04 6.545659e+04 1.071069e+05 8.292762e+04 8.334686e+04 1.075886e+05 1.039557e+05 1.039557e+05 1.039557e+05 1.045732e+05 9.867684e+04 1.039204e+05 1.039204e+05 1.039204e+05 1.049824e+05 1.049824e+05 9.550326e+04 9.550326e+04 9.550326e+04 9.639514e+04 8.827593e+04 8.827593e+04 8.827593e+04 8.810041e+04 1.304567e+05 1.302339e+05 1.292686e+05 1.325184e+05 1.325184e+05 1.054666e+05 1.054666e+05 1.054666e+05 1.060573e+05 1.205440e+05 1.205440e+05 1.205440e+05 1.212719e+05 1.212719e+05 1.205921e+05 8.407935e+04 8.407935e+04 8.407935e+04 8.367160e+04 8.823156e+04 8.823156e+04 8.823156e+04 8.902189e+04 8.948042e+04 1.155632e+05 1.155632e+05 1.155632e+05 1.156288e+05 7.125979e+04 6.923729e+04 9.472847e+04 9.472847e+04 9.472847e+04 9.545965e+04 7.959608e+04 7.959608e+04 7.959608e+04 7.986728e+04 1.253837e+05 1.253837e+05 1.253837e+05 1.263047e+05 1.263047e+05 7.540662e+04 7.540662e+04 7.540662e+04 7.580228e+04 1.250699e+05 1.250699e+05 1.250699e+05 1.248065e+05 1.303728e+05 1.303728e+05 1.303728e+05 1.303487e+05 8.412877e+04 8.412877e+04 8.406799e+04 1.082441e+05 1.082441e+05 1.099275e+05 1.099275e+05 1.099275e+05 1.047221e+05 1.047221e+05 1.047221e+05 1.044380e+05 6.524712e+04 6.524712e+04 6.524712e+04 6.515686e+04 6.515686e+04 1.390994e+05 1.390994e+05 1.390994e+05 1.387170e+05 1.387170e+05 1.086767e+05 1.241631e+05 1.241631e+05 1.245666e+05 6.470287e+04 6.470287e+04 6.470287e+04 6.463956e+04 6.990043e+04 6.990043e+04 7.030870e+04 7.030870e+04 1.333565e+05 1.333565e+05 1.336595e+05 1.288273e+05 1.288273e+05 6.832331e+04 6.832331e+04 6.871337e+04 6.871337e+04 1.267075e+05 1.267075e+05 1.267075e+05 1.264392e+05 1.072609e+05 1.068852e+05 1.155978e+05 1.155978e+05 1.155978e+05 1.152088e+05 1.195627e+05 1.195627e+05 1.195627e+05 1.188514e+05 1.188514e+05 6.701584e+04 6.701584e+04 6.701584e+04 6.701613e+04 6.701613e+04 1.171494e+05 1.177757e+05 1.419900e+05 1.419900e+05 1.419900e+05 1.418915e+05 7.127146e+04 7.127146e+04 7.127146e+04 7.053515e+04 7.053515e+04 7.134825e+04 7.161699e+04 1.090890e+05 1.090890e+05 1.090890e+05 1.084404e+05 1.084404e+05 1.011462e+05 1.014109e+05 1.014109e+05 8.071858e+04 8.071858e+04 8.071858e+04 8.102749e+04 8.102749e+04 8.406307e+04 8.406307e+04 8.406307e+04 8.351424e+04 8.351424e+04 7.409133e+04 7.409133e+04 7.496737e+04 7.496737e+04 1.083211e+05 1.083211e+05 1.076729e+05 7.599046e+04 7.599046e+04 7.581344e+04 7.581344e+04 8.326999e+04 8.326999e+04 8.326999e+04 8.460995e+04 9.621619e+04 9.621619e+04 9.621619e+04 9.485862e+04 9.485862e+04 1.276439e+05 1.299928e+05 1.241736e+05 1.044898e+05 1.044898e+05 1.044898e+05 1.054139e+05 1.054139e+05 1.075622e+05 1.075622e+05 1.080270e+05 1.026527e+05 1.026527e+05 1.025016e+05 1.016094e+05 1.091904e+05 1.091904e+05 1.091904e+05 1.083341e+05 1.083341e+05 1.083341e+05 1.122225e+05 1.122225e+05 1.122225e+05 9.616427e+04 9.691459e+04 1.057406e+05 1.124675e+05 1.124675e+05 1.124675e+05 1.115351e+05 1.157906e+05 1.157906e+05 1.157906e+05 1.158364e+05 1.158364e+05 1.158364e+05 1.152687e+05 8.674654e+04 8.674654e+04 8.674654e+04 9.668777e+04 9.668777e+04 9.668777e+04 1.107744e+05 1.107744e+05 1.107744e+05 1.256447e+05 1.256447e+05 1.257627e+05 8.137729e+04 8.713707e+04 8.713707e+04 1.319128e+05 1.319128e+05 1.319128e+05 1.331435e+05 1.331435e+05 1.052817e+05 1.052817e+05 6.732653e+04 6.820188e+04 6.923729e+04 1.364987e+05 1.364987e+05 1.364987e+05 1.359526e+05 8.972727e+04 8.972727e+04 8.972727e+04 1.071210e+05 1.070390e+05 1.065945e+05 9.619650e+04 9.619650e+04 9.619650e+04 7.991262e+04 7.991262e+04 7.991262e+04 7.974305e+04 7.933276e+04 1.089772e+05 1.089772e+05 1.089772e+05 1.401549e+05 1.401549e+05 1.401549e+05 1.401257e+05 1.201276e+05 1.201276e+05 1.201276e+05 1.198546e+05 1.404941e+05 1.404941e+05 1.404941e+05 1.155561e+05 1.001240e+05 1.001240e+05 1.020982e+05 1.020982e+05 1.020982e+05 1.018777e+05 1.020433e+05 6.588487e+04 6.588487e+04 6.623019e+04 6.502649e+04 6.493399e+04 1.277208e+05 1.277208e+05 8.320323e+04 8.320323e+04 8.320323e+04 8.353269e+04 6.714103e+04 6.714103e+04 6.714103e+04 6.749222e+04 1.205910e+05 1.206016e+05 1.206016e+05 9.401917e+04 9.401917e+04 9.401917e+04 9.384813e+04 6.962080e+04 9.746406e+04 9.746406e+04 9.749378e+04 1.303794e+05 1.303794e+05 1.303794e+05 1.394329e+05 1.394329e+05 1.375850e+05 1.375850e+05 1.375850e+05 1.379849e+05 1.411747e+05 1.411747e+05 1.411747e+05 1.409246e+05 1.409246e+05 1.410874e+05 1.353231e+05 1.353231e+05 1.013750e+05 7.815343e+04 7.815343e+04 7.861431e+04 9.438424e+04 1.437755e+05 1.432274e+05 1.437755e+05 1.437755e+05 1.230549e+05 1.230549e+05 1.230549e+05 1.223955e+05 1.223955e+05 1.311827e+05 1.311827e+05 1.315408e+05 1.315408e+05 1.269121e+05 1.269121e+05 1.269121e+05 1.278613e+05 1.278613e+05 1.051222e+05 1.051222e+05 1.051222e+05 1.056992e+05 1.056992e+05 1.373005e+05 1.373005e+05 1.373005e+05 1.359093e+05 1.359093e+05 1.171100e+05 1.171100e+05 1.171100e+05 1.068884e+05 7.128209e+04 7.128209e+04 7.128209e+04 7.277650e+04 7.277650e+04 7.926785e+04 7.926785e+04 7.926785e+04 8.105067e+04 8.105067e+04 8.904960e+04 8.904960e+04 8.904960e+04 9.071711e+04 9.071711e+04 1.321674e+05 1.321674e+05 1.321674e+05 1.082776e+05 1.082776e+05 1.082776e+05 1.090635e+05 1.090635e+05 9.434485e+04 9.649818e+04 8.961747e+04 8.961747e+04 8.961747e+04 8.864064e+04 1.072489e+05 1.072489e+05 1.069281e+05 1.016883e+05 1.016883e+05 1.016558e+05 1.016558e+05 1.025427e+05 1.032045e+05 1.126879e+05 1.103337e+05 1.126879e+05 1.126879e+05 1.063375e+05 1.063375e+05 1.038181e+05 1.159257e+05 1.167556e+05 1.354484e+05 1.354484e+05 1.354484e+05 1.348919e+05 1.352013e+05 9.351956e+04 9.351956e+04 9.351956e+04 9.287957e+04 7.955885e+04 8.213140e+04 6.580014e+04 6.580014e+04 6.580014e+04 6.609711e+04 1.248802e+05 1.250295e+05 1.249920e+05 1.020279e+05 1.020279e+05 1.018303e+05 6.745372e+04 6.901162e+04 6.901162e+04 6.926173e+04 6.967905e+04 7.907417e+04 7.927270e+04 7.928769e+04 9.215447e+04 9.215447e+04 9.215447e+04 9.199693e+04 7.220221e+04 7.220221e+04 7.220221e+04 7.176752e+04 1.025368e+05 7.250619e+04 7.302435e+04 7.302435e+04 1.170774e+05 1.170774e+05 1.170774e+05 9.150803e+04 1.368146e+05 1.368146e+05 9.537542e+04 9.537542e+04 9.537542e+04 1.211876e+05 6.791343e+04 6.791343e+04 9.341010e+04 9.044801e+04 9.044801e+04 9.044801e+04 9.025873e+04 8.063411e+04 6.559391e+04 6.559391e+04 6.577127e+04 6.899460e+04 1.037434e+05 1.037434e+05 7.490252e+04 7.490252e+04 7.490252e+04 7.451185e+04 1.338662e+05 1.341264e+05 1.341264e+05 1.188138e+05 7.166883e+04 7.166883e+04 7.154724e+04 1.360682e+05 1.360682e+05 1.343139e+05 1.254138e+05 8.567228e+04 8.589718e+04 8.589718e+04 1.429909e+05 1.429909e+05 8.443569e+04 1.385639e+05 1.385639e+05 8.778538e+04 8.778538e+04 8.778538e+04 8.727121e+04 7.826365e+04 7.826365e+04 8.220320e+04 8.220320e+04 6.712535e+04 6.573139e+04 1.136972e+05 1.134589e+05 7.326809e+04 7.384851e+04 7.384851e+04 1.055642e+05 1.058601e+05 1.058601e+05 6.623216e+04 6.623216e+04 6.640679e+04 6.640679e+04 1.308136e+05 1.064636e+05 1.433245e+05 1.433245e+05 1.434302e+05 1.437689e+05 1.437689e+05 1.328495e+05 1.326562e+05 1.217628e+05 1.217628e+05 1.217628e+05 1.401457e+05 1.401457e+05 1.401457e+05 1.400125e+05 8.675805e+04 8.675805e+04 1.230565e+05 6.686784e+04 6.686784e+04 9.090221e+04 8.081924e+04 9.632617e+04 9.632617e+04 9.632617e+04 7.064671e+04 7.064671e+04 1.319378e+05 1.317654e+05 1.317654e+05 1.113152e+05 1.115883e+05 1.093554e+05 1.096198e+05 6.552852e+04 1.419063e+05 1.419063e+05 7.692734e+04 7.692734e+04 7.692734e+04 7.677898e+04 1.405629e+05 8.111657e+04 8.955095e+04 8.955095e+04 8.901176e+04 8.543414e+04 8.543414e+04 6.797462e+04 6.797462e+04 6.752630e+04 1.194018e+05 1.194823e+05 1.194823e+05 9.785126e+04 1.425740e+05 1.425740e+05 1.420954e+05 1.420954e+05 9.970849e+04 9.970849e+04 9.970849e+04 7.565188e+04 7.565188e+04 7.565188e+04 1.007766e+05 1.007766e+05 1.349541e+05 1.421459e+05 1.417310e+05 1.411580e+05 1.331557e+05 1.424641e+05 7.024524e+04 1.121727e+05 1.127887e+05 7.630630e+04 7.630630e+04 1.267957e+05 1.236644e+05 7.767025e+04 7.736904e+04 9.884767e+04 9.884767e+04 1.445716e+05 1.442983e+05 1.436916e+05 1.436916e+05 1.436916e+05 1.439843e+05 1.362395e+05 1.353768e+05 1.371764e+05 1.373644e+05 1.110257e+05 1.110257e+05 1.107780e+05 1.332820e+05 7.207840e+04 7.466339e+04 1.261953e+05 1.238774e+05 1.238774e+05 1.238774e+05 9.663978e+04 8.874120e+04 8.874120e+04 8.874120e+04 1.441352e+05 1.366556e+05 1.417388e+05 1.410756e+05 8.471832e+04 1.197130e+05 1.422120e+05 1.429077e+05 6.733552e+04 6.796994e+04 6.796994e+04 1.162208e+05 1.219495e+05 7.058300e+04 6.865354e+04 1.349678e+05 1.341182e+05 1.341182e+05 7.349046e+04 7.349046e+04 7.379196e+04 7.379196e+04 8.714274e+04 1.272402e+05 1.053478e+05 6.484237e+04 1.385086e+05 1.378767e+05 9.590746e+04 1.045823e+05 1.043796e+05 1.043796e+05 1.368611e+05 1.368611e+05 1.365616e+05 1.365616e+05 9.485996e+04 9.540569e+04 8.307922e+04 8.307922e+04 8.291998e+04 9.135776e+04 9.135776e+04 9.070180e+04 9.070180e+04 8.541621e+04 8.541621e+04 6.590052e+04 1.410341e+05 1.410341e+05 1.335726e+05 1.335726e+05 1.335726e+05 1.295546e+05 7.155900e+04 7.155900e+04 7.727200e+04 7.727200e+04 6.915406e+04 6.933262e+04 1.320457e+05 1.399173e+05 6.474107e+04 6.721387e+04 6.721387e+04 9.905089e+04 9.905089e+04 9.988080e+04 6.824641e+04 6.824641e+04 8.150925e+04 8.150925e+04 1.382552e+05 1.382552e+05 1.123731e+05 1.430242e+05 1.215524e+05 1.215524e+05 1.211582e+05 1.054776e+05 1.059507e+05 6.993405e+04 7.416399e+04 8.608525e+04 1.416594e+05 6.572766e+04 8.999255e+04 8.999255e+04 8.999255e+04 1.029696e+05 1.029696e+05 1.029696e+05 1.092298e+05 9.338326e+04 9.338326e+04 9.338326e+04 9.253687e+04 1.432163e+05 1.427115e+05 1.264851e+05 1.260595e+05 1.260595e+05 1.006599e+05 1.006599e+05 1.006599e+05 1.289319e+05 7.257977e+04 1.408025e+05 1.436574e+05 1.436574e+05 1.431918e+05 1.031033e+05 8.001608e+04 8.001608e+04 8.034529e+04 8.618067e+04 8.618067e+04 1.419836e+05 6.583606e+04 8.667605e+04 8.730457e+04 7.846998e+04 1.108809e+05 1.115261e+05 1.396587e+05 9.664429e+04 9.664429e+04 9.664429e+04 8.194519e+04 8.194519e+04 1.313521e+05 1.310064e+05 1.310064e+05 1.379295e+05 1.373145e+05 7.543689e+04 7.526537e+04 1.384974e+05 1.384974e+05 1.384974e+05 1.382067e+05 7.596513e+04 7.596513e+04 7.625923e+04 6.770766e+04 6.770766e+04 1.136875e+05 1.136875e+05 1.136875e+05 1.134344e+05 8.652756e+04 1.392567e+05 1.392567e+05 1.392567e+05 1.391273e+05 1.403366e+05 7.806455e+04 7.806455e+04 7.805303e+04 7.805303e+04 7.466573e+04 1.322441e+05 1.322441e+05 9.971560e+04 9.903393e+04 1.291937e+05 1.291937e+05 7.681015e+04 7.736614e+04 1.364684e+05 1.432274e+05 1.428847e+05 8.502371e+04 8.509175e+04 1.414311e+05 9.346922e+04 9.346922e+04 9.331950e+04 9.331950e+04 8.472884e+04 9.701188e+04 9.776791e+04 1.248481e+05 8.809327e+04 7.659335e+04 7.744386e+04 1.326037e+05 1.326037e+05 1.426144e+05 1.426144e+05 1.426144e+05 1.422249e+05 6.862112e+04 6.862112e+04 6.809877e+04 1.127712e+05 1.126828e+05 1.230392e+05 6.638094e+04 6.669234e+04 6.669234e+04 6.669234e+04 6.679095e+04 9.139859e+04 1.444399e+05 1.374611e+05 1.363452e+05 1.363452e+05 7.174609e+04 7.174609e+04 7.174609e+04 7.129632e+04 1.416429e+05 1.416429e+05 1.354927e+05 1.354927e+05 1.350435e+05 1.267342e+05 1.199807e+05 1.405708e+05 8.856801e+04 8.799250e+04 1.421078e+05 1.421092e+05 1.062220e+05 1.216508e+05 1.216508e+05 1.216508e+05 1.224145e+05 7.220864e+04 9.433871e+04 9.427535e+04 6.867518e+04 6.923654e+04 1.019145e+05 1.023627e+05 8.121805e+04 8.121805e+04 1.240155e+05 8.425727e+04 8.425727e+04 8.506952e+04 8.267251e+04 8.267251e+04 9.183731e+04 7.366185e+04 7.366185e+04 7.273120e+04 1.354261e+05 1.400050e+05 1.400050e+05 8.999856e+04 9.016797e+04 9.016797e+04 1.155571e+05 7.053869e+04 6.743153e+04 6.767933e+04 1.335503e+05 1.335503e+05 1.043261e+05 8.636940e+04 1.149324e+05 1.147955e+05 1.127431e+05 1.339590e+05 1.339590e+05 1.232417e+05 1.232417e+05 1.232417e+05 1.119811e+05 1.120956e+05 1.287198e+05 1.288966e+05 1.288966e+05 1.046560e+05 1.039740e+05 1.039740e+05 1.176063e+05 1.101861e+05 1.110585e+05 1.376943e+05 1.389908e+05 1.389908e+05 1.389908e+05 1.392491e+05 6.998921e+04 7.807235e+04 9.110150e+04 9.167689e+04 8.111203e+04 8.111203e+04 8.111203e+04 9.723835e+04 9.723835e+04 9.723835e+04 9.752728e+04 9.837763e+04 7.022510e+04 7.485287e+04 7.450963e+04 9.506632e+04 9.506632e+04 7.356504e+04 7.437653e+04 7.437519e+04 7.437519e+04 9.328947e+04 8.412363e+04 8.412363e+04 8.377076e+04 1.259125e+05 1.259125e+05 1.251376e+05 8.870946e+04 8.870946e+04 1.074764e+05 7.768128e+04 7.768128e+04 7.699624e+04 7.699624e+04 6.949280e+04 6.949280e+04 6.949280e+04 1.368861e+05 1.362312e+05 1.362312e+05 6.830987e+04 6.830987e+04 6.830987e+04 6.729495e+04 6.900500e+04 9.617607e+04 1.375621e+05 1.375621e+05 1.366148e+05 1.350407e+05 1.350407e+05 1.350407e+05 1.197702e+05 1.197702e+05 1.192798e+05 1.167745e+05 1.167745e+05 1.175076e+05 7.004637e+04 7.182475e+04 7.182475e+04 1.414588e+05 1.405794e+05 8.728592e+04 8.728592e+04 8.728592e+04 1.413980e+05 7.564207e+04 7.564207e+04 7.598937e+04 7.598937e+04 6.986428e+04 6.986428e+04 7.036658e+04 7.036658e+04 6.838517e+04 6.838517e+04 6.797726e+04 1.138613e+05 1.137008e+05 8.781024e+04 1.321656e+05 1.321656e+05 1.321656e+05 9.722378e+04 1.224102e+05 7.260166e+04 1.191681e+05 1.406551e+05 8.204885e+04 1.245341e+05 1.245341e+05 1.412548e+05 1.405337e+05 1.405337e+05 1.156514e+05 1.158569e+05 1.394592e+05 1.394592e+05 1.382663e+05 7.423877e+04 7.423877e+04 9.913357e+04 1.040437e+05 1.333333e+05 1.095579e+05 1.406272e+05 1.394894e+05 1.394894e+05 8.638350e+04 9.492101e+04 9.247970e+04 1.382777e+05 1.385110e+05 7.080591e+04 7.080591e+04 8.246859e+04 8.246859e+04 1.053635e+05 6.950199e+04 6.945904e+04 6.945904e+04 1.354939e+05 8.529368e+04 8.651679e+04 9.245176e+04 9.245176e+04 9.245176e+04 9.145092e+04 9.145092e+04 1.218353e+05 1.333778e+05 1.374957e+05 1.280236e+05 1.280236e+05 1.118814e+05 1.118814e+05 1.120890e+05 1.108315e+05 1.108315e+05 1.395686e+05 1.395686e+05 1.395686e+05 1.383120e+05 1.383120e+05 1.173589e+05 1.173589e+05 1.182059e+05 1.222372e+05 1.206501e+05 1.206501e+05 1.206501e+05 7.867602e+04 1.236903e+05 1.229918e+05 1.229918e+05 7.917113e+04 7.959608e+04 6.820188e+04 7.072008e+04 1.364319e+05 1.160445e+05 1.150425e+05 1.405794e+05 1.292037e+05 1.292037e+05 1.280322e+05 1.280322e+05 1.303331e+05 1.305593e+05 1.368332e+05 7.240449e+04 7.759235e+04 7.759235e+04 7.769140e+04 6.973224e+04 1.320180e+05 6.856546e+04 9.820545e+04 8.039193e+04 1.379304e+05 1.349279e+05 1.349279e+05 1.346621e+05 1.346621e+05 9.102800e+04 1.029580e+05 1.029580e+05 1.029580e+05 8.764862e+04 1.314559e+05 1.072343e+05 7.435796e+04 7.428517e+04 8.484238e+04 6.995063e+04 7.674996e+04 7.505135e+04 7.280148e+04 7.280148e+04 7.280148e+04 1.239963e+05 8.893967e+04 7.053050e+04 1.285587e+05 1.285587e+05 1.277377e+05 1.116425e+05 9.835675e+04 9.835675e+04 1.342746e+05 1.188614e+05 1.194670e+05 7.153525e+04 1.109040e+05 1.109040e+05 1.123472e+05 6.985349e+04 7.278417e+04 7.278417e+04 7.206937e+04 1.034868e+05 1.034868e+05 1.034868e+05 1.137990e+05 9.361072e+04 1.083520e+05 9.175659e+04 9.070849e+04 9.070849e+04 8.786985e+04 8.118600e+04 1.240701e+05 1.240701e+05 1.304717e+05 8.568690e+04 8.568690e+04 8.568690e+04 8.521649e+04 1.375324e+05 1.158790e+05 1.356157e+05 1.340359e+05 1.012291e+05 1.219268e+05 1.224226e+05 1.352725e+05 1.147517e+05 1.146933e+05 7.125979e+04 1.142633e+05 1.291479e+05 1.291479e+05 1.291479e+05 1.393608e+05 1.387622e+05 1.283042e+05 1.339392e+05 1.393608e+05 7.442519e+04 7.286166e+04 8.264979e+04 1.190927e+05 1.173274e+05 1.097156e+05 7.628669e+04 7.628669e+04 7.628669e+04 8.686256e+04 1.336995e+05 1.336995e+05 1.368703e+05 1.368703e+05 1.126550e+05 7.390372e+04 1.329363e+05 9.966554e+04 9.966554e+04 9.966554e+04 9.493293e+04 1.317462e+05 1.317462e+05 9.901116e+04 1.085182e+05 1.197149e+05 7.664030e+04 1.292041e+05 1.292041e+05 1.292041e+05 7.520562e+04 7.520562e+04 7.520562e+04 1.390466e+05 1.080811e+05 1.347465e+05 1.347465e+05 7.356221e+04 7.356221e+04 7.356221e+04 7.436014e+04 9.353449e+04 9.353449e+04 9.353449e+04 1.251682e+05 1.251682e+05 1.251682e+05 1.280018e+05 1.015543e+05 1.013052e+05 1.033145e+05 1.033145e+05 1.033145e+05 9.626194e+04 9.667004e+04 9.667004e+04 1.241224e+05 1.220536e+05 1.375641e+05 1.010064e+05 1.004487e+05 7.840510e+04 8.108191e+04 1.147689e+05 8.526270e+04 7.748232e+04 7.748232e+04 7.654041e+04 1.309816e+05 1.124829e+05 8.744834e+04 8.681931e+04 9.843614e+04 1.145974e+05 9.235872e+04 9.235872e+04 1.224598e+05 1.244760e+05 1.236696e+05 8.406188e+04 1.079088e+05 1.321851e+05 7.882179e+04 7.882179e+04 7.559944e+04 7.559944e+04 1.262920e+05 1.262920e+05 1.262920e+05 1.245132e+05 1.245132e+05 1.142648e+05 1.279941e+05 1.275644e+05 1.275644e+05 8.517470e+04 1.106605e+05 1.121329e+05 1.175372e+05 1.175372e+05 1.194173e+05 1.249716e+05 7.925974e+04 7.925974e+04 1.230511e+05 1.222921e+05 7.840510e+04 7.840510e+04 8.763377e+04 9.106519e+04 9.106519e+04 9.106519e+04 1.055188e+05 8.352715e+04 8.401495e+04 9.939826e+04 9.939826e+04 9.939826e+04 1.025911e+05 1.037965e+05 1.124904e+05 1.017632e+05 8.680419e+04 1.175751e+05 1.175751e+05 1.175751e+05 1.163800e+05 9.019227e+04 1.239431e+05 1.239431e+05 1.239431e+05 1.202238e+05 8.068095e+04 1.216763e+05 1.216763e+05 1.060250e+05 8.061634e+04 8.061634e+04 8.061634e+04 8.016403e+04 8.016403e+04 1.297825e+05 1.276515e+05 1.276515e+05 8.188168e+04 8.939931e+04 8.939931e+04 1.157593e+05 8.265639e+04 8.265639e+04 8.265639e+04 8.469023e+04 8.469023e+04 8.469023e+04 1.030621e+05 1.030621e+05 1.040615e+05 9.523053e+04 8.206891e+04 8.206891e+04 1.025025e+05 1.090757e+05 1.090757e+05 1.074580e+05 1.074580e+05 1.209946e+05 9.271986e+04 9.316035e+04 9.316035e+04 9.198703e+04 9.198703e+04 9.908967e+04 9.908967e+04 1.011568e+05 1.136403e+05 1.136403e+05 1.121365e+05 1.121365e+05 9.597079e+04 1.142307e+05 1.247914e+05 1.241476e+05 1.241476e+05 1.126741e+05 1.066210e+05 9.835711e+04 1.223805e+05 1.223805e+05 1.141190e+05 1.241736e+05 1.241736e+05 8.299394e+04 8.299394e+04 1.162535e+05 1.203231e+05 1.203231e+05 1.203231e+05 1.184262e+05 1.184262e+05 1.216002e+05 1.093758e+05 1.093758e+05 1.187979e+05 1.187979e+05 1.172849e+05 9.837544e+04 1.056991e+05 8.875520e+04 8.784439e+04 1.213095e+05 1.213095e+05 9.013277e+04 9.013277e+04 1.029256e+05 1.029256e+05 8.445495e+04 1.074034e+05 1.074034e+05 1.058106e+05 9.571851e+04 9.571851e+04 1.155691e+05 1.155691e+05 1.139482e+05 1.098476e+05 1.098476e+05 9.920333e+04 9.920333e+04 1.046461e+05 1.046461e+05 1.017270e+05 1.019858e+05 1.019858e+05 9.239075e+04 9.217284e+04 9.807242e+04 1.090986e+05 1.092566e+05 1.194039e+05 1.189354e+05 1.155267e+05 1.155267e+05 1.192152e+05 9.498100e+04 9.498100e+04 9.295631e+04 1.115327e+05 1.189335e+05 1.206805e+05 1.206805e+05 1.015764e+05 1.015764e+05 1.160595e+05 1.186002e+05 9.846809e+04 9.846809e+04 1.145631e+05 1.145631e+05 9.097031e+04 9.427336e+04 9.427336e+04 9.427336e+04 9.263721e+04 9.263721e+04 1.141726e+05 1.126762e+05 1.100983e+05 1.100983e+05 1.120903e+05 1.120903e+05 1.140339e+05 9.735457e+04 1.175585e+05 1.150522e+05 1.067222e+05 1.043585e+05 1.091822e+05 1.064843e+05 1.116901e+05 1.001784e+05 1.053945e+05 1.081694e+05 1.067906e+05 1.073630e+05 1.110209e+05 1.103337e+05 1.023144e+05 1.023144e+05 1.066799e+05 1.059916e+05 1.090044e+05 1.011854e+05 1.018508e+05 1.073843e+05 1.073843e+05 1.072263e+05 1.072263e+05 1.035515e+05 1.035515e+05 1.062602e+05 1.051081e+05 1.051081e+05 1.051081e+05 1.050906e+05 1.050906e+05 9.779164e+04 9.779164e+04 9.779164e+04 9.320531e+04 9.320531e+04 8.640824e+04 8.736983e+04 1.003502e+05 8.640824e+04 8.640824e+04 8.542347e+04 9.098736e+04 9.386482e+04 9.530238e+04 9.589368e+04 9.603136e+04 9.827842e+04 9.847309e+04 9.990882e+04 9.990882e+04 1.032648e+05 8.463985e+04 1.003502e+05 1.187084e+05 1.128307e+05 1.062026e+05 1.186597e+05 1.186597e+05 1.158666e+05 1.155794e+05 1.158666e+05 1.035281e+05 1.142606e+05 1.046864e+05 1.009868e+05 1.012702e+05 1.012702e+05 1.053227e+05 1.445716e+05 1.445716e+05 1.444399e+05 1.442401e+05 1.441449e+05 1.440291e+05 1.438433e+05 1.436248e+05 1.434460e+05 1.432572e+05 1.430560e+05 1.428464e+05 1.426255e+05 1.423967e+05 1.421952e+05 1.418587e+05 1.416377e+05 1.414287e+05 1.411351e+05 1.408458e+05 1.405887e+05 1.402797e+05 1.399686e+05 1.396411e+05 1.393004e+05 1.389115e+05 1.385773e+05 1.382609e+05 1.379055e+05 1.374811e+05 1.371491e+05 1.367370e+05 1.363567e+05 1.358924e+05 1.354111e+05 1.350841e+05 1.346673e+05 1.342302e+05 1.337116e+05 1.333033e+05 1.328495e+05 1.323717e+05 1.319378e+05 1.314066e+05 1.308953e+05 1.304384e+05 1.299850e+05 1.294978e+05 1.288444e+05 1.283157e+05 1.278071e+05 1.272699e+05 1.267300e+05 1.262254e+05 1.256065e+05 1.251118e+05 1.245630e+05 1.240322e+05 1.234676e+05 1.228979e+05 1.223438e+05 1.217782e+05 1.211459e+05 1.205910e+05 1.200203e+05 1.194018e+05 1.187139e+05 1.181546e+05 1.175776e+05 1.169989e+05 1.163379e+05 1.157396e+05 1.151338e+05 1.145323e+05 1.138604e+05 1.132690e+05 1.126018e+05 1.119664e+05 1.113152e+05 1.107479e+05 1.100188e+05 1.093554e+05 1.087078e+05 1.080374e+05 1.074375e+05 1.068161e+05 1.061927e+05 1.055642e+05 1.048580e+05 1.041959e+05 1.035585e+05 1.029162e+05 1.023573e+05 1.016793e+05 1.010300e+05 1.004448e+05 9.977027e+04 9.914143e+04 9.853442e+04 9.777758e+04 9.717767e+04 9.656356e+04 9.600512e+04 9.528867e+04 9.468373e+04 9.408390e+04 9.348000e+04 9.283437e+04 9.223136e+04 9.165490e+04 9.107968e+04 9.049099e+04 8.991102e+04 8.922825e+04 8.863477e+04 8.797146e+04 8.738422e+04 8.684637e+04 8.625294e+04 8.567228e+04 8.513941e+04 8.458848e+04 8.401565e+04 8.346099e+04 8.292762e+04 8.234479e+04 8.186741e+04 8.129823e+04 8.074744e+04 8.026426e+04 7.978892e+04 7.915387e+04 7.870278e+04 7.823331e+04 7.782127e+04 7.727915e+04 7.680187e+04 7.640609e+04 7.586860e+04 7.547931e+04 7.507276e+04 7.453914e+04 7.414697e+04 7.371636e+04 7.326809e+04 7.289356e+04 7.250619e+04 7.208990e+04 7.168399e+04 7.138058e+04 7.104305e+04 7.061362e+04 7.025518e+04 6.993038e+04 6.956645e+04 6.926386e+04 6.899460e+04 6.857221e+04 6.829893e+04 6.800386e+04 6.774627e+04 6.743140e+04 6.719078e+04 6.691635e+04 6.666400e+04 6.645857e+04 6.625647e+04 6.607151e+04 6.586892e+04 6.571017e+04 6.544352e+04 6.526913e+04 6.509710e+04 6.495253e+04 6.483681e+04 6.465848e+04 6.454360e+04 6.441762e+04 6.428155e+04 6.419282e+04 6.413360e+04 1.025400e+05 1.025400e+05 1.025400e+05 1.041797e+05 1.041797e+05 1.041797e+05 1.045699e+05 1.042450e+05 1.063375e+05 1.051999e+05 1.086006e+05 1.086006e+05 1.086006e+05 1.085504e+05 9.653158e+04 9.653158e+04 9.653158e+04 9.646892e+04 9.712169e+04 1.315760e+05 1.315760e+05 1.315760e+05 1.314816e+05 1.311441e+05 1.311441e+05 1.311441e+05 1.303377e+05 9.940203e+04 9.940203e+04 9.940203e+04 1.000480e+05 1.005893e+05 1.005664e+05 7.876104e+04 7.876104e+04 7.876104e+04 7.779353e+04 7.779353e+04 1.302629e+05 1.302629e+05 1.302629e+05 1.296999e+05 7.294928e+04 7.294928e+04 7.294928e+04 7.206213e+04 7.206213e+04 1.425768e+05 1.425768e+05 1.425768e+05 1.137087e+05 1.137087e+05 1.137087e+05 1.140942e+05 1.076264e+05 1.076264e+05 1.076264e+05 1.279076e+05 1.279076e+05 1.279076e+05 1.279220e+05 8.022731e+04 8.022731e+04 8.028678e+04 8.028678e+04 1.159625e+05 1.159625e+05 1.164419e+05 1.288692e+05 1.288692e+05 1.288692e+05 1.294811e+05 1.294811e+05 6.863403e+04 6.863403e+04 6.863403e+04 6.946310e+04 6.946310e+04 9.905688e+04 9.905688e+04 9.905688e+04 9.811736e+04 9.811736e+04 1.325480e+05 1.325480e+05 1.168052e+05 1.168052e+05 1.168052e+05 1.169505e+05 1.077503e+05 1.077503e+05 1.077503e+05 1.074850e+05 1.075418e+05 1.181546e+05 1.181546e+05 1.181546e+05 1.146709e+05 1.146709e+05 1.149129e+05 1.350841e+05 1.353208e+05 1.353208e+05 6.495253e+04 6.545659e+04 6.545659e+04 1.071069e+05 8.292762e+04 8.334686e+04 1.075886e+05 1.039557e+05 1.039557e+05 1.039557e+05 1.045732e+05 9.867684e+04 1.039204e+05 1.039204e+05 1.039204e+05 1.049824e+05 1.049824e+05 9.550326e+04 9.550326e+04 9.550326e+04 9.639514e+04 8.827593e+04 8.827593e+04 8.827593e+04 8.810041e+04 1.304567e+05 1.302339e+05 1.292686e+05 1.325184e+05 1.325184e+05 1.054666e+05 1.054666e+05 1.054666e+05 1.060573e+05 1.205440e+05 1.205440e+05 1.205440e+05 1.212719e+05 1.212719e+05 1.205921e+05 8.407935e+04 8.407935e+04 8.407935e+04 8.367160e+04 8.823156e+04 8.823156e+04 8.823156e+04 8.902189e+04 8.948042e+04 1.155632e+05 1.155632e+05 1.155632e+05 1.156288e+05 7.125979e+04 6.923729e+04 9.472847e+04 9.472847e+04 9.472847e+04 9.545965e+04 7.959608e+04 7.959608e+04 7.959608e+04 7.986728e+04 1.253837e+05 1.253837e+05 1.253837e+05 1.263047e+05 1.263047e+05 7.540662e+04 7.540662e+04 7.540662e+04 7.580228e+04 1.250699e+05 1.250699e+05 1.250699e+05 1.248065e+05 1.303728e+05 1.303728e+05 1.303728e+05 1.303487e+05 8.412877e+04 8.412877e+04 8.406799e+04 1.082441e+05 1.082441e+05 1.099275e+05 1.099275e+05 1.099275e+05 1.047221e+05 1.047221e+05 1.047221e+05 1.044380e+05 6.524712e+04 6.524712e+04 6.524712e+04 6.515686e+04 6.515686e+04 1.390994e+05 1.390994e+05 1.390994e+05 1.387170e+05 1.387170e+05 1.086767e+05 1.241631e+05 1.241631e+05 1.245666e+05 6.470287e+04 6.470287e+04 6.470287e+04 6.463956e+04 6.990043e+04 6.990043e+04 7.030870e+04 7.030870e+04 1.333565e+05 1.333565e+05 1.336595e+05 1.288273e+05 1.288273e+05 6.832331e+04 6.832331e+04 6.871337e+04 6.871337e+04 1.267075e+05 1.267075e+05 1.267075e+05 1.264392e+05 1.072609e+05 1.068852e+05 1.155978e+05 1.155978e+05 1.155978e+05 1.152088e+05 1.195627e+05 1.195627e+05 1.195627e+05 1.188514e+05 1.188514e+05 6.701584e+04 6.701584e+04 6.701584e+04 6.701613e+04 6.701613e+04 1.171494e+05 1.177757e+05 1.419900e+05 1.419900e+05 1.419900e+05 1.418915e+05 7.127146e+04 7.127146e+04 7.127146e+04 7.053515e+04 7.053515e+04 7.134825e+04 7.161699e+04 1.090890e+05 1.090890e+05 1.090890e+05 1.084404e+05 1.084404e+05 1.011462e+05 1.014109e+05 1.014109e+05 8.071858e+04 8.071858e+04 8.071858e+04 8.102749e+04 8.102749e+04 8.406307e+04 8.406307e+04 8.406307e+04 8.351424e+04 8.351424e+04 7.409133e+04 7.409133e+04 7.