<?xml version="1.0"?>
 <VTKFile type="UnstructuredGrid" version="1.0" byte_order="LittleEndian" header_type="UInt64">
  <UnstructuredGrid>
    <FieldData>
     <DataArray type="Float64" Name="TimeValue" NumberOfTuples="1" format="ascii">
9e-05
     </DataArray>
    </FieldData>
   <Piece NumberOfPoints="3662" NumberOfCells="3444">
    <PointData>
     <DataArray type="Float64" Name="pointP" format="ascii">
1.452060e+05 1.452047e+05 1.452343e+05 1.451500e+05 1.450722e+05 1.450235e+05 1.449438e+05 1.448822e+05 1.448062e+05 1.447471e+05 1.446415e+05 1.445266e+05 1.443782e+05 1.442354e+05 1.440526e+05 1.439371e+05 1.437952e+05 1.436202e+05 1.434093e+05 1.432112e+05 1.430361e+05 1.427799e+05 1.425826e+05 1.423732e+05 1.421734e+05 1.419836e+05 1.416939e+05 1.414355e+05 1.411500e+05 1.407906e+05 1.404358e+05 1.402076e+05 1.398390e+05 1.396091e+05 1.393143e+05 1.389492e+05 1.385998e+05 1.383043e+05 1.378510e+05 1.374349e+05 1.370713e+05 1.366830e+05 1.363215e+05 1.358949e+05 1.355255e+05 1.351038e+05 1.346756e+05 1.342232e+05 1.337666e+05 1.333046e+05 1.328919e+05 1.324150e+05 1.319850e+05 1.314189e+05 1.309413e+05 1.304333e+05 1.298650e+05 1.294197e+05 1.288827e+05 1.282822e+05 1.279030e+05 1.274272e+05 1.267746e+05 1.262538e+05 1.257187e+05 1.252001e+05 1.245710e+05 1.240313e+05 1.234415e+05 1.229188e+05 1.222801e+05 1.216797e+05 1.211067e+05 1.201873e+05 1.198608e+05 1.193159e+05 1.187626e+05 1.181757e+05 1.175271e+05 1.168709e+05 1.163184e+05 1.157230e+05 1.150570e+05 1.144633e+05 1.138477e+05 1.132266e+05 1.125263e+05 1.118857e+05 1.113116e+05 1.107164e+05 1.101022e+05 1.093761e+05 1.088087e+05 1.080594e+05 1.074673e+05 1.068087e+05 1.061099e+05 1.054931e+05 1.048760e+05 1.042430e+05 1.036474e+05 1.029915e+05 1.023809e+05 1.017288e+05 1.011271e+05 1.003991e+05 9.975928e+04 9.910156e+04 9.846758e+04 9.782886e+04 9.725009e+04 9.654127e+04 9.595404e+04 9.532197e+04 9.474803e+04 9.414770e+04 9.345950e+04 9.286758e+04 9.229116e+04 9.174272e+04 9.105911e+04 9.049134e+04 8.980169e+04 8.980169e+04 1.036535e+05 1.058943e+05 1.069343e+05 1.070463e+05 1.073192e+05 1.077429e+05 1.080809e+05 1.080809e+05 1.081259e+05 1.082912e+05 1.084344e+05 1.084344e+05 1.088855e+05 1.088855e+05 1.094519e+05 1.097462e+05 1.098652e+05 1.102562e+05 1.106883e+05 1.117837e+05 1.117837e+05 1.130464e+05 1.130464e+05 1.137659e+05 1.152562e+05 1.156454e+05 1.165902e+05 1.170587e+05 1.184279e+05 1.193869e+05 1.202871e+05 1.217508e+05 1.222222e+05 1.237938e+05 1.254069e+05 1.266733e+05 1.277841e+05 1.277841e+05 1.288254e+05 1.310008e+05 1.310008e+05 1.332657e+05 1.339551e+05 1.339551e+05 1.354570e+05 1.369316e+05 1.369316e+05 1.382828e+05 1.390813e+05 1.402799e+05 1.402799e+05 1.410581e+05 1.422668e+05 1.429729e+05 1.441317e+05 1.445295e+05 1.034606e+05 1.127431e+05 1.127431e+05 1.127431e+05 1.133249e+05 1.096110e+05 1.096110e+05 1.096110e+05 1.103399e+05 1.103399e+05 1.142433e+05 1.142433e+05 1.142433e+05 1.144500e+05 1.140631e+05 1.021825e+05 1.107912e+05 1.107912e+05 1.102284e+05 1.129418e+05 1.129418e+05 1.129418e+05 1.125050e+05 1.121185e+05 1.265607e+05 1.265607e+05 1.265607e+05 1.259925e+05 1.056177e+05 1.056177e+05 1.056177e+05 1.052888e+05 1.049389e+05 1.049389e+05 1.120979e+05 1.120979e+05 1.096429e+05 1.092341e+05 1.034606e+05 1.034606e+05 1.073482e+05 1.073482e+05 1.073482e+05 1.071103e+05 1.066152e+05 1.066152e+05 1.069793e+05 1.108623e+05 1.108623e+05 1.108623e+05 1.109351e+05 1.102636e+05 1.118344e+05 1.117819e+05 1.068989e+05 1.068989e+05 1.068989e+05 1.060533e+05 9.927068e+04 9.706689e+04 9.522416e+04 9.706689e+04 1.231224e+05 1.231224e+05 1.231224e+05 1.277177e+05 1.277177e+05 1.277177e+05 1.265912e+05 9.238668e+04 9.159125e+04 9.238668e+04 9.238668e+04 1.208320e+05 1.208320e+05 1.208320e+05 1.208207e+05 1.314189e+05 1.314189e+05 1.314189e+05 1.310765e+05 1.361930e+05 1.361930e+05 1.361930e+05 1.351995e+05 1.351995e+05 9.556171e+04 9.556171e+04 9.556171e+04 9.517555e+04 1.010104e+05 1.010104e+05 1.010104e+05 1.001728e+05 1.001728e+05 1.409947e+05 1.409947e+05 1.409947e+05 1.413853e+05 1.134739e+05 1.134739e+05 1.134739e+05 1.135338e+05 1.135338e+05 8.941231e+04 8.981714e+04 1.368436e+05 1.368436e+05 1.368436e+05 1.365659e+05 1.396348e+05 1.396348e+05 1.396348e+05 1.401752e+05 1.401752e+05 1.180851e+05 1.180851e+05 1.180851e+05 1.179022e+05 1.382410e+05 1.382410e+05 1.382410e+05 1.378501e+05 9.532197e+04 1.263721e+05 1.263721e+05 1.263721e+05 1.205439e+05 1.205439e+05 1.205439e+05 1.201001e+05 1.149090e+05 1.149090e+05 1.149090e+05 1.146800e+05 1.054931e+05 1.026873e+05 1.026873e+05 1.026873e+05 1.024135e+05 1.108501e+05 1.108501e+05 1.108501e+05 1.109278e+05 1.109278e+05 8.981714e+04 8.981714e+04 8.941231e+04 1.362386e+05 1.362386e+05 1.362386e+05 1.373254e+05 1.373254e+05 1.134346e+05 1.140240e+05 1.140240e+05 1.308883e+05 1.308883e+05 1.308883e+05 1.319984e+05 1.319984e+05 1.295797e+05 1.295797e+05 1.295797e+05 1.299616e+05 9.596954e+04 9.505584e+04 9.596954e+04 9.596954e+04 9.646429e+04 1.101929e+05 1.101929e+05 1.101929e+05 1.109303e+05 1.120026e+05 1.131641e+05 1.131641e+05 1.049825e+05 1.049825e+05 1.034668e+05 1.034668e+05 1.147780e+05 1.147780e+05 1.147780e+05 1.163137e+05 1.163137e+05 1.042621e+05 1.042621e+05 1.042621e+05 1.042518e+05 1.036009e+05 1.085842e+05 1.070369e+05 1.212895e+05 1.212895e+05 1.212895e+05 1.208135e+05 1.254195e+05 1.254195e+05 1.254195e+05 1.247195e+05 1.155910e+05 1.155910e+05 1.155910e+05 1.295062e+05 1.295062e+05 1.295062e+05 1.050144e+05 1.050144e+05 1.050144e+05 1.334074e+05 1.334074e+05 1.334074e+05 9.599590e+04 9.599590e+04 9.599590e+04 9.594925e+04 9.526742e+04 1.056263e+05 1.056263e+05 1.056263e+05 9.730842e+04 9.730842e+04 9.745245e+04 1.178513e+05 1.178513e+05 1.178513e+05 1.185854e+05 1.080978e+05 1.080978e+05 1.080978e+05 1.080108e+05 1.041487e+05 1.041487e+05 1.396802e+05 1.396802e+05 1.396802e+05 1.390370e+05 9.226254e+04 9.226254e+04 9.226254e+04 9.228252e+04 9.892626e+04 9.892626e+04 9.892626e+04 9.908593e+04 1.363639e+05 1.363639e+05 1.363639e+05 1.221728e+05 1.221728e+05 1.221728e+05 1.223829e+05 1.095070e+05 1.095070e+05 1.095070e+05 1.095878e+05 1.090326e+05 1.090326e+05 1.090326e+05 1.088324e+05 1.146801e+05 1.146801e+05 1.146801e+05 1.151369e+05 1.432007e+05 1.432007e+05 1.432007e+05 1.412425e+05 1.412425e+05 1.412425e+05 1.411863e+05 1.395346e+05 1.395346e+05 1.395346e+05 1.391710e+05 1.370770e+05 1.370770e+05 1.367712e+05 1.217748e+05 1.217748e+05 1.216871e+05 9.941817e+04 9.941817e+04 9.951165e+04 1.120274e+05 1.120274e+05 1.120274e+05 1.123053e+05 1.171344e+05 1.171344e+05 1.171344e+05 1.411230e+05 1.411230e+05 1.409712e+05 1.193894e+05 1.193894e+05 1.190161e+05 1.127290e+05 1.382872e+05 1.381921e+05 1.018199e+05 1.018199e+05 1.014124e+05 1.431135e+05 1.431135e+05 1.431135e+05 1.433795e+05 1.165142e+05 1.165142e+05 1.346498e+05 1.346498e+05 1.346498e+05 1.437313e+05 1.437313e+05 1.437313e+05 1.435587e+05 1.435587e+05 1.420464e+05 1.420464e+05 1.420464e+05 1.424486e+05 1.400172e+05 1.400172e+05 1.400172e+05 1.397147e+05 1.397147e+05 1.045323e+05 1.045323e+05 1.045323e+05 1.039900e+05 1.039900e+05 1.401244e+05 1.401244e+05 1.407713e+05 1.407713e+05 1.422546e+05 1.422546e+05 1.422546e+05 1.363265e+05 1.363265e+05 1.363265e+05 1.370932e+05 1.020532e+05 1.020532e+05 1.020532e+05 1.020033e+05 1.020033e+05 9.109092e+04 9.109092e+04 9.109092e+04 9.191251e+04 9.191251e+04 1.109413e+05 1.109413e+05 1.109413e+05 1.123041e+05 1.123041e+05 1.231855e+05 1.231855e+05 1.231855e+05 1.238508e+05 1.238508e+05 1.286432e+05 1.286432e+05 1.286432e+05 1.299004e+05 1.305238e+05 1.305238e+05 1.338513e+05 1.338513e+05 1.338513e+05 1.325604e+05 1.325604e+05 9.898997e+04 9.898997e+04 9.898997e+04 9.955992e+04 9.955992e+04 1.078747e+05 1.078747e+05 1.078747e+05 1.095146e+05 1.095146e+05 1.082647e+05 1.082647e+05 1.066532e+05 1.066532e+05 1.176889e+05 1.176889e+05 1.190320e+05 1.190320e+05 1.085362e+05 1.068335e+05 1.068335e+05 1.163017e+05 1.163017e+05 1.163017e+05 1.166752e+05 1.166752e+05 1.137604e+05 1.137604e+05 1.053066e+05 1.053066e+05 1.053066e+05 1.055875e+05 1.117161e+05 1.009558e+05 1.003543e+05 1.078641e+05 1.078641e+05 1.078641e+05 1.081037e+05 1.081037e+05 1.000576e+05 1.000576e+05 9.928015e+04 9.893308e+04 9.934223e+04 1.316649e+05 1.316649e+05 1.316649e+05 1.308529e+05 1.354524e+05 1.354524e+05 1.348204e+05 1.098775e+05 1.098775e+05 1.098775e+05 9.315510e+04 9.315510e+04 9.315510e+04 9.283532e+04 9.266340e+04 1.415617e+05 1.415617e+05 1.415617e+05 1.154358e+05 1.000314e+05 9.452072e+04 9.452072e+04 1.389316e+05 1.389316e+05 1.245710e+05 1.247567e+05 1.247567e+05 1.247567e+05 1.284200e+05 1.284200e+05 1.284200e+05 1.281028e+05 1.452343e+05 1.448382e+05 1.448382e+05 1.441315e+05 1.441315e+05 1.441315e+05 1.442781e+05 1.050174e+05 1.050174e+05 1.046782e+05 1.068087e+05 1.447976e+05 1.447976e+05 1.416263e+05 1.416263e+05 1.090704e+05 1.090704e+05 9.738353e+04 9.738353e+04 9.738353e+04 1.438621e+05 1.438621e+05 1.440164e+05 8.954527e+04 8.954527e+04 9.011144e+04 1.403456e+05 1.435021e+05 1.429899e+05 1.429899e+05 1.430678e+05 1.235899e+05 1.235899e+05 1.235899e+05 1.235548e+05 1.324150e+05 1.324894e+05 1.451500e+05 1.446143e+05 1.359910e+05 1.359910e+05 1.332873e+05 1.332873e+05 1.332873e+05 1.333099e+05 1.082223e+05 1.082223e+05 1.077025e+05 1.077025e+05 1.205763e+05 1.426208e+05 1.426208e+05 1.421486e+05 1.271900e+05 1.271900e+05 1.271900e+05 9.654127e+04 1.448822e+05 1.441159e+05 1.303152e+05 1.303152e+05 1.303152e+05 1.300308e+05 9.637922e+04 9.637922e+04 9.625007e+04 1.295297e+05 1.295297e+05 1.295020e+05 1.010152e+05 1.010152e+05 1.108357e+05 1.108357e+05 1.444926e+05 1.378510e+05 1.377838e+05 1.288253e+05 1.436721e+05 1.436721e+05 1.342575e+05 9.878601e+04 9.827105e+04 9.827105e+04 1.062886e+05 1.062886e+05 1.059472e+05 1.059472e+05 1.420530e+05 1.420530e+05 1.252808e+05 1.438617e+05 1.225366e+05 1.225366e+05 1.228215e+05 1.310388e+05 1.310388e+05 1.310388e+05 1.446738e+05 1.446738e+05 1.149199e+05 9.423919e+04 9.423919e+04 1.321720e+05 1.317430e+05 1.351465e+05 1.198611e+05 9.049134e+04 9.105911e+04 1.427139e+05 1.278548e+05 9.168839e+04 9.168839e+04 9.168839e+04 9.101173e+04 1.413999e+05 9.005532e+04 9.873087e+04 9.873087e+04 1.342232e+05 1.325635e+05 1.032933e+05 1.032933e+05 1.429610e+05 1.429610e+05 9.328117e+04 9.328117e+04 1.065882e+05 1.262387e+05 1.262387e+05 1.013384e+05 1.066114e+05 1.142943e+05 1.140796e+05 1.253494e+05 1.253494e+05 1.245968e+05 1.245968e+05 1.001849e+05 1.142179e+05 1.442248e+05 9.148772e+04 1.133765e+05 1.336679e+05 1.389024e+05 9.102283e+04 1.025514e+05 1.031971e+05 1.059461e+05 1.328468e+05 1.326222e+05 1.443971e+05 1.443971e+05 1.254875e+05 1.248371e+05 1.366884e+05 1.044409e+05 1.393927e+05 1.393927e+05 1.352135e+05 1.352135e+05 1.352135e+05 1.118588e+05 1.244104e+05 9.728764e+04 1.405165e+05 1.407876e+05 1.408371e+05 1.408371e+05 1.408371e+05 1.312012e+05 1.312012e+05 1.312012e+05 1.314562e+05 1.440348e+05 1.237392e+05 1.236310e+05 1.129565e+05 1.129565e+05 1.129565e+05 1.340926e+05 1.340926e+05 1.340926e+05 1.346989e+05 1.290293e+05 1.290293e+05 1.295493e+05 1.209693e+05 1.205160e+05 1.001017e+05 1.003293e+05 9.837923e+04 9.837923e+04 9.807799e+04 9.401047e+04 9.401047e+04 9.378273e+04 9.378273e+04 1.048992e+05 1.432209e+05 1.105207e+05 1.441101e+05 1.437140e+05 1.432307e+05 1.432307e+05 1.428198e+05 1.428198e+05 1.352502e+05 1.363946e+05 1.187959e+05 1.415409e+05 1.415409e+05 1.352576e+05 1.352576e+05 1.401248e+05 1.161640e+05 1.161640e+05 1.161640e+05 1.379370e+05 1.159463e+05 9.522254e+04 9.522254e+04 9.522254e+04 9.541447e+04 9.541447e+04 1.301422e+05 1.302667e+05 1.434102e+05 1.434102e+05 1.439613e+05 9.259624e+04 9.300078e+04 1.282370e+05 1.282370e+05 1.254251e+05 1.317435e+05 1.417496e+05 9.679981e+04 9.679981e+04 9.679981e+04 9.752631e+04 1.436149e+05 1.436149e+05 1.433538e+05 1.430012e+05 1.422609e+05 1.422609e+05 1.069192e+05 1.069192e+05 1.069192e+05 1.081929e+05 9.911888e+04 1.083537e+05 1.077333e+05 1.077333e+05 1.220974e+05 1.187298e+05 1.187298e+05 1.195501e+05 1.360709e+05 1.350510e+05 1.350510e+05 1.418806e+05 1.418806e+05 8.981472e+04 1.231186e+05 1.231186e+05 1.122308e+05 1.113349e+05 1.113349e+05 1.171944e+05 1.173374e+05 1.230944e+05 1.403225e+05 9.858563e+04 9.858563e+04 9.858563e+04 1.033829e+05 1.416478e+05 1.413342e+05 1.158573e+05 1.158573e+05 1.400843e+05 1.400843e+05 1.400843e+05 1.298869e+05 1.298869e+05 1.298869e+05 1.249436e+05 1.056550e+05 1.287454e+05 1.287454e+05 1.287454e+05 9.342257e+04 1.432040e+05 1.037436e+05 1.047656e+05 1.220716e+05 1.221103e+05 1.221103e+05 1.273007e+05 1.200771e+05 1.421889e+05 1.424137e+05 1.424137e+05 1.184431e+05 1.389968e+05 1.389968e+05 1.388322e+05 1.383859e+05 1.401145e+05 1.394140e+05 1.394140e+05 1.378620e+05 1.279682e+05 1.279682e+05 1.275531e+05 1.275531e+05 1.387389e+05 1.387389e+05 1.378309e+05 1.378309e+05 1.171035e+05 1.425445e+05 1.417771e+05 1.206394e+05 1.206394e+05 1.336442e+05 9.110612e+04 1.347086e+05 1.372073e+05 1.328579e+05 1.328579e+05 1.128014e+05 9.941832e+04 1.300549e+05 1.395902e+05 1.398268e+05 1.398268e+05 9.811663e+04 1.304181e+05 1.304181e+05 1.311407e+05 1.163403e+05 1.163403e+05 1.163403e+05 1.092122e+05 1.263368e+05 9.588087e+04 9.588087e+04 9.608645e+04 1.338894e+05 1.338894e+05 1.295293e+05 1.405040e+05 1.405040e+05 1.405040e+05 1.233591e+05 1.413134e+05 1.251286e+05 1.321675e+05 1.316786e+05 1.197468e+05 1.192142e+05 1.192142e+05 1.066366e+05 1.060893e+05 1.060893e+05 9.419326e+04 9.369141e+04 1.052157e+05 1.045043e+05 1.045043e+05 1.404526e+05 1.404526e+05 1.404526e+05 1.387235e+05 1.379665e+05 1.379665e+05 1.101067e+05 1.408501e+05 1.325122e+05 1.210567e+05 1.210567e+05 9.009175e+04 9.009175e+04 1.014055e+05 1.418287e+05 1.418287e+05 1.119101e+05 1.350263e+05 1.340102e+05 1.340102e+05 1.243237e+05 1.243237e+05 1.334238e+05 1.334238e+05 1.191701e+05 1.177796e+05 1.028375e+05 1.309547e+05 1.410012e+05 1.410012e+05 1.383031e+05 1.288169e+05 1.288169e+05 1.274645e+05 1.274645e+05 8.991181e+04 1.179616e+05 1.071087e+05 1.077035e+05 1.219797e+05 1.213241e+05 1.011590e+05 1.264369e+05 1.264369e+05 1.264369e+05 1.391078e+05 1.391078e+05 1.399736e+05 1.025133e+05 1.025133e+05 1.025133e+05 9.808416e+04 9.808416e+04 1.341538e+05 1.341538e+05 1.350684e+05 1.395153e+05 1.391649e+05 1.158124e+05 1.369177e+05 1.369177e+05 1.363863e+05 1.203623e+05 1.380004e+05 1.380004e+05 1.252323e+05 1.060988e+05 1.060988e+05 1.060988e+05 1.047675e+05 1.296344e+05 9.163226e+04 9.287654e+04 9.430102e+04 9.640975e+04 1.290125e+05 1.280251e+05 1.094660e+05 1.404160e+05 1.383024e+05 1.383024e+05 1.383024e+05 1.385687e+05 1.084226e+05 1.390252e+05 1.350491e+05 1.353197e+05 1.255478e+05 1.255478e+05 1.255478e+05 1.148791e+05 1.148791e+05 1.148791e+05 1.172477e+05 1.172477e+05 1.375338e+05 1.369035e+05 1.369035e+05 1.369035e+05 1.171460e+05 1.323459e+05 1.323459e+05 1.323459e+05 1.192836e+05 1.269081e+05 1.269081e+05 1.269081e+05 1.007191e+05 1.007191e+05 1.007191e+05 9.570149e+04 1.072722e+05 1.352860e+05 1.352860e+05 1.320701e+05 1.384770e+05 1.121215e+05 1.104705e+05 1.104705e+05 1.104705e+05 1.222592e+05 1.344440e+05 1.339404e+05 1.019857e+05 1.010407e+05 1.197111e+05 9.274998e+04 1.358377e+05 1.358377e+05 1.371292e+05 1.369956e+05 1.297756e+05 1.180512e+05 1.359644e+05 1.099751e+05 1.099751e+05 1.162333e+05 1.211508e+05 1.143868e+05 1.143868e+05 1.138629e+05 1.123036e+05 9.894063e+04 9.894063e+04 1.254816e+05 1.254816e+05 1.264146e+05 1.280371e+05 1.345134e+05 1.340721e+05 1.183200e+05 1.195007e+05 1.297345e+05 1.378764e+05 1.372127e+05 1.002761e+05 9.482820e+04 9.482820e+04 9.482820e+04 1.346902e+05 1.346902e+05 1.236785e+05 1.236785e+05 1.228028e+05 1.331334e+05 1.289187e+05 1.278312e+05 1.278312e+05 1.059819e+05 1.059819e+05 1.071675e+05 1.034978e+05 1.034978e+05 1.155433e+05 1.027942e+05 1.016092e+05 1.109614e+05 1.083964e+05 1.118189e+05 1.133386e+05 1.286462e+05 1.239545e+05 1.239545e+05 1.239545e+05 1.259991e+05 1.334206e+05 1.358265e+05 1.177753e+05 1.333452e+05 1.230661e+05 1.230661e+05 1.246755e+05 1.204889e+05 1.204889e+05 1.195359e+05 1.195359e+05 1.132271e+05 1.138664e+05 9.539894e+04 9.599796e+04 1.182366e+05 1.050451e+05 1.222568e+05 1.222568e+05 1.154788e+05 1.154788e+05 1.154788e+05 1.141620e+05 1.325157e+05 1.316392e+05 1.162858e+05 1.006842e+05 1.110794e+05 1.258304e+05 1.177474e+05 1.177474e+05 1.224447e+05 1.224447e+05 1.032157e+05 1.032157e+05 1.204223e+05 1.320491e+05 1.291934e+05 1.291934e+05 1.277451e+05 9.711574e+04 1.221673e+05 1.307686e+05 1.117133e+05 1.117133e+05 1.106050e+05 1.157274e+05 1.167491e+05 1.281649e+05 1.281649e+05 1.119744e+05 1.119744e+05 1.053405e+05 1.035957e+05 1.035957e+05 1.140664e+05 1.258674e+05 1.012659e+05 1.206715e+05 1.244504e+05 1.272907e+05 9.745199e+04 1.048520e+05 1.216732e+05 1.216732e+05 1.243326e+05 9.855049e+04 9.646429e+04 1.021426e+05 1.021426e+05 1.021426e+05 1.038239e+05 1.141150e+05 1.141150e+05 1.238994e+05 1.238994e+05 1.219440e+05 1.219440e+05 1.158198e+05 9.980441e+04 9.887064e+04 1.179487e+05 1.179487e+05 1.179487e+05 1.175630e+05 1.097206e+05 1.097206e+05 1.179937e+05 1.179937e+05 1.143173e+05 1.143173e+05 1.138142e+05 9.643184e+04 9.643184e+04 9.643184e+04 9.525756e+04 1.127382e+05 1.110061e+05 1.110061e+05 1.007815e+05 1.032320e+05 9.706689e+04 9.802102e+04 9.955330e+04 9.955330e+04 1.113512e+05 1.193508e+05 1.059684e+05 1.062713e+05 1.112178e+05 1.046575e+05 1.046575e+05 1.149232e+05 1.144784e+05 1.199372e+05 1.016870e+05 1.016870e+05 1.000740e+05 1.176690e+05 1.176690e+05 1.152775e+05 1.014786e+05 1.003001e+05 1.003001e+05 1.003001e+05 9.884302e+04 1.137618e+05 9.950449e+04 1.028782e+05 1.090866e+05 9.950449e+04 1.041044e+05 1.009480e+05 1.009480e+05 1.078060e+05 1.072202e+05 1.035423e+05 1.029350e+05 1.073547e+05 1.073547e+05 1.073547e+05 1.030800e+05 1.082848e+05 1.082848e+05 1.082848e+05 1.064631e+05 1.064631e+05 1.053465e+05 1.037984e+05 1.071823e+05 1.047126e+05 1.042647e+05 1.063385e+05 1.050930e+05 1.057698e+05 1.070788e+05 1.070788e+05 1.036406e+05 1.036406e+05 1.044139e+05 1.072574e+05 1.072574e+05 1.072574e+05 1.075923e+05 1.075923e+05 1.062100e+05 1.062100e+05 1.062100e+05 1.254636e+05 1.263783e+05 1.263783e+05 1.263783e+05 1.021825e+05 1.021825e+05 1.266613e+05 1.266613e+05 1.266613e+05 1.276996e+05 1.276996e+05 1.041453e+05 1.029589e+05 1.247925e+05 1.247925e+05 1.239210e+05 1.021412e+05 1.283660e+05 1.276751e+05 1.279006e+05 1.009558e+05 1.025950e+05 1.029225e+05 1.082650e+05 1.082650e+05 1.085082e+05 1.402254e+05 1.165481e+05 1.165481e+05 1.165481e+05 1.145935e+05 1.218999e+05 1.218999e+05 1.218999e+05 1.224823e+05 1.217989e+05 1.217989e+05 1.349941e+05 1.180966e+05 1.180966e+05 1.180966e+05 1.179306e+05 1.102801e+05 1.390552e+05 1.390552e+05 1.390552e+05 1.216137e+05 1.335307e+05 1.335307e+05 1.302140e+05 1.302140e+05 1.302140e+05 1.199612e+05 1.199612e+05 1.199612e+05 1.230379e+05 1.201426e+05 1.201426e+05 1.204870e+05 1.246049e+05 1.162505e+05 1.205074e+05 1.193816e+05 1.187242e+05 1.154264e+05 1.140204e+05 1.173148e+05 1.129151e+05 1.113459e+05 1.127085e+05 1.127085e+05 1.108158e+05 1.108158e+05 1.108158e+05 1.080809e+05 1.369699e+05 1.239252e+05 1.239252e+05 1.202721e+05 1.185612e+05 1.157606e+05 1.157606e+05 1.328399e+05 1.328399e+05 1.287278e+05 1.287278e+05 1.248203e+05 1.229358e+05 1.173896e+05 1.139951e+05 1.109536e+05 1.109536e+05 1.084315e+05 1.092824e+05 1.367050e+05 1.367050e+05 1.152341e+05 1.114177e+05 1.114177e+05 1.129290e+05 1.115753e+05 1.105694e+05 1.094857e+05 1.094857e+05 1.094857e+05 1.096796e+05 1.096796e+05 1.091644e+05 1.089312e+05 1.089312e+05 1.089312e+05 1.111181e+05 1.111181e+05 1.029462e+05 1.085632e+05 1.085632e+05 1.087859e+05 1.084331e+05 1.084331e+05 1.033999e+05 1.045546e+05 1.034658e+05 1.082846e+05 1.082846e+05 1.082846e+05 1.080336e+05 1.091764e+05 1.059204e+05 1.081673e+05 1.274922e+05 1.075113e+05 1.069695e+05 1.078123e+05 1.077429e+05 1.287996e+05 1.317583e+05 1.317583e+05 1.337080e+05 1.337080e+05 1.358321e+05 1.358321e+05 1.358321e+05 1.374069e+05 1.380262e+05 1.380262e+05 1.380262e+05 1.414728e+05 1.081498e+05 1.085210e+05 1.085210e+05 1.085210e+05 1.089105e+05 1.094686e+05 1.098153e+05 1.149301e+05 1.093128e+05 1.099213e+05 1.101952e+05 1.100457e+05 1.107919e+05 1.105101e+05 1.097847e+05 1.086247e+05 1.092748e+05 1.087373e+05 1.087373e+05 1.083212e+05 1.083212e+05 1.093125e+05 1.087112e+05 1.081692e+05 1.080069e+05 1.292393e+05 1.307917e+05 1.370950e+05 1.429877e+05 1.452060e+05 1.451847e+05 1.451518e+05 1.451681e+05 1.450941e+05 1.450631e+05 1.449923e+05 1.449134e+05 1.448377e+05 1.447631e+05 1.446540e+05 1.058942e+05 1.058942e+05 1.070478e+05 1.070478e+05 1.073205e+05 1.077374e+05 1.080209e+05 1.080209e+05 1.080209e+05 1.080479e+05 1.076395e+05 1.076395e+05 1.069676e+05 1.069676e+05 1.069676e+05 1.107032e+05 1.107032e+05 1.107032e+05 1.110439e+05 1.110439e+05 1.067417e+05 1.067417e+05 1.067417e+05 1.071172e+05 1.058942e+05 1.058654e+05 1.058654e+05 1.079837e+05 1.089753e+05 1.089753e+05 1.439802e+05 1.439802e+05 1.439802e+05 1.445954e+05 1.445954e+05 1.069355e+05 1.075195e+05 1.075195e+05 1.442694e+05 1.442694e+05 1.439351e+05 1.339737e+05 1.339737e+05 1.339737e+05 1.275983e+05 1.275983e+05 1.275983e+05 1.259467e+05 1.259467e+05 1.083974e+05 1.406897e+05 1.406897e+05 1.406897e+05 1.402799e+05 1.447119e+05 1.447119e+05 1.447119e+05 1.444956e+05 1.440674e+05 1.426309e+05 1.426309e+05 1.426309e+05 1.447321e+05 1.440203e+05 1.440203e+05 1.440203e+05 1.442641e+05 1.307183e+05 1.324072e+05 1.307183e+05 1.307183e+05 1.117141e+05 1.117141e+05 1.056604e+05 1.348694e+05 1.348694e+05 1.447397e+05 1.447631e+05 1.446396e+05 1.446396e+05 1.442641e+05 1.429729e+05 1.422668e+05 1.440598e+05 1.437368e+05 1.430520e+05 1.430520e+05 1.430879e+05 1.425283e+05 1.431812e+05 1.430879e+05 1.426610e+05 1.414992e+05 1.414992e+05 1.417601e+05 1.417601e+05 1.421747e+05 1.412476e+05 1.411534e+05 1.405769e+05 1.405769e+05 1.399664e+05 1.405389e+05 1.390424e+05 1.373605e+05 1.373605e+05 1.324072e+05 1.286690e+05 1.286690e+05 1.270089e+05 1.270089e+05 1.256038e+05 1.245088e+05 1.208964e+05 1.096844e+05 1.056604e+05 1.056604e+05 1.087695e+05 1.087695e+05 1.087695e+05 1.086336e+05 1.074382e+05 1.090791e+05 1.090791e+05 1.090791e+05 1.090172e+05 1.101775e+05 1.101775e+05 1.101775e+05 1.100160e+05 1.097462e+05 1.136464e+05 1.136464e+05 1.136464e+05 1.142026e+05 1.181970e+05 1.181970e+05 1.181970e+05 1.179696e+05 1.170998e+05 1.145048e+05 1.145048e+05 1.139608e+05 1.230948e+05 1.230948e+05 1.230948e+05 1.237938e+05 1.237938e+05 1.216617e+05 1.216617e+05 1.216617e+05 1.111901e+05 1.111901e+05 1.213251e+05 1.213251e+05 1.213251e+05 1.206790e+05 1.206790e+05 1.304755e+05 1.304755e+05 1.304755e+05 1.265141e+05 1.265141e+05 1.265141e+05 1.188057e+05 1.188057e+05 1.188057e+05 1.099643e+05 1.261373e+05 1.254605e+05 1.210480e+05 1.202871e+05 1.302180e+05 1.271433e+05 1.271433e+05 1.176788e+05 1.176788e+05 1.207452e+05 1.194972e+05 1.243043e+05 1.243043e+05 1.243043e+05 1.303090e+05 1.348694e+05 1.210338e+05 1.161477e+05 1.161477e+05 1.161477e+05 1.237496e+05 1.194326e+05 1.163325e+05 1.146793e+05 1.130872e+05 1.175183e+05 1.130951e+05 1.126203e+05 1.123398e+05 1.123398e+05 1.080452e+05 1.354570e+05 1.354570e+05 1.258527e+05 1.156454e+05 1.156454e+05 1.237710e+05 1.385519e+05 1.139381e+05 1.139381e+05 1.115729e+05 1.115729e+05 1.115729e+05 1.220983e+05 1.273944e+05 1.118079e+05 1.135216e+05 1.116920e+05 1.107128e+05 1.106719e+05 1.106719e+05 1.106719e+05 1.097869e+05 1.097869e+05 1.102021e+05 1.100694e+05 1.100694e+05 1.094010e+05 1.093084e+05 1.083974e+05 1.089306e+05 1.089306e+05 1.079173e+05 1.082039e+05 1.267674e+05 1.341388e+05 1.341388e+05 1.375952e+05 1.375952e+05 1.312759e+05 1.074940e+05 1.165902e+05 1.253037e+05 1.277841e+05 1.283390e+05 1.302807e+05 1.302807e+05 1.324829e+05 1.324829e+05 1.324829e+05 1.343650e+05 1.358342e+05 1.369316e+05 1.382828e+05 1.382828e+05 1.383582e+05 1.419248e+05 1.117837e+05 1.130464e+05 1.296384e+05 1.390813e+05 1.137659e+05 1.146195e+05 1.114685e+05 1.106883e+05 1.120632e+05 1.108363e+05 1.094519e+05 1.128870e+05 1.096166e+05 1.096166e+05 1.092620e+05 1.091904e+05 1.084344e+05 1.084089e+05 1.084089e+05 1.082912e+05 1.086653e+05 1.087176e+05 1.283698e+05 1.315951e+05 1.351891e+05 1.395744e+05 1.351895e+05 1.365265e+05 1.320090e+05 1.389403e+05 1.364548e+05 1.081859e+05 1.070478e+05 1.452060e+05 1.452047e+05 1.452343e+05 1.451500e+05 1.450722e+05 1.450235e+05 1.449438e+05 1.448822e+05 1.448062e+05 1.447471e+05 1.446415e+05 1.445266e+05 1.443782e+05 1.442354e+05 1.440526e+05 1.439371e+05 1.437952e+05 1.436202e+05 1.434093e+05 1.432112e+05 1.430361e+05 1.427799e+05 1.425826e+05 1.423732e+05 1.421734e+05 1.419836e+05 1.416939e+05 1.414355e+05 1.411500e+05 1.407906e+05 1.404358e+05 1.402076e+05 1.398390e+05 1.396091e+05 1.393143e+05 1.389492e+05 1.385998e+05 1.383043e+05 1.378510e+05 1.374349e+05 1.370713e+05 1.366830e+05 1.363215e+05 1.358949e+05 1.355255e+05 1.351038e+05 1.346756e+05 1.342232e+05 1.337666e+05 1.333046e+05 1.328919e+05 1.324150e+05 1.319850e+05 1.314189e+05 1.309413e+05 1.304333e+05 1.298650e+05 1.294197e+05 1.288827e+05 1.282822e+05 1.279030e+05 1.274272e+05 1.267746e+05 1.262538e+05 1.257187e+05 1.252001e+05 1.245710e+05 1.240313e+05 1.234415e+05 1.229188e+05 1.222801e+05 1.216797e+05 1.211067e+05 1.201873e+05 1.198608e+05 1.193159e+05 1.187626e+05 1.181757e+05 1.175271e+05 1.168709e+05 1.163184e+05 1.157230e+05 1.150570e+05 1.144633e+05 1.138477e+05 1.132266e+05 1.125263e+05 1.118857e+05 1.113116e+05 1.107164e+05 1.101022e+05 1.093761e+05 1.088087e+05 1.080594e+05 1.074673e+05 1.068087e+05 1.061099e+05 1.054931e+05 1.048760e+05 1.042430e+05 1.036474e+05 1.029915e+05 1.023809e+05 1.017288e+05 1.011271e+05 1.003991e+05 9.975928e+04 9.910156e+04 9.846758e+04 9.782886e+04 9.725009e+04 9.654127e+04 9.595404e+04 9.532197e+04 9.474803e+04 9.414770e+04 9.345950e+04 9.286758e+04 9.229116e+04 9.174272e+04 9.105911e+04 9.049134e+04 8.980169e+04 8.980169e+04 1.036535e+05 1.036535e+05 1.067817e+05 1.070463e+05 1.073192e+05 1.077429e+05 1.080809e+05 1.080809e+05 1.081259e+05 1.082912e+05 1.084344e+05 1.084344e+05 1.088855e+05 1.088855e+05 1.094519e+05 1.097462e+05 1.098652e+05 1.102562e+05 1.106883e+05 1.117837e+05 1.117837e+05 1.130464e+05 1.130464e+05 1.137659e+05 1.152562e+05 1.156454e+05 1.165902e+05 1.170587e+05 1.184279e+05 1.193869e+05 1.202871e+05 1.217508e+05 1.222222e+05 1.237938e+05 1.254069e+05 1.266733e+05 1.277841e+05 1.277841e+05 1.288254e+05 1.310008e+05 1.310008e+05 1.332657e+05 1.339551e+05 1.339551e+05 1.354570e+05 1.369316e+05 1.369316e+05 1.382828e+05 1.390813e+05 1.402799e+05 1.402799e+05 1.410581e+05 1.422668e+05 1.429729e+05 1.441317e+05 1.445295e+05 1.034606e+05 1.127431e+05 1.127431e+05 1.127431e+05 1.133249e+05 1.096110e+05 1.096110e+05 1.096110e+05 1.103399e+05 1.103399e+05 1.142433e+05 1.142433e+05 1.142433e+05 1.144500e+05 1.140631e+05 1.021825e+05 1.107912e+05 1.107912e+05 1.102284e+05 1.129418e+05 1.129418e+05 1.129418e+05 1.125050e+05 1.121185e+05 1.265607e+05 1.265607e+05 1.265607e+05 1.259925e+05 1.056177e+05 1.056177e+05 1.056177e+05 1.052888e+05 1.049389e+05 1.049389e+05 1.120979e+05 1.120979e+05 1.096429e+05 1.092341e+05 1.034606e+05 1.034606e+05 1.073482e+05 1.073482e+05 1.073482e+05 1.071103e+05 1.066152e+05 1.066152e+05 1.069793e+05 1.108623e+05 1.108623e+05 1.108623e+05 1.109351e+05 1.102636e+05 1.118344e+05 1.117819e+05 1.068989e+05 1.068989e+05 1.068989e+05 1.060533e+05 9.927068e+04 9.706689e+04 9.522416e+04 9.706689e+04 1.231224e+05 1.231224e+05 1.231224e+05 1.277177e+05 1.277177e+05 1.277177e+05 1.265912e+05 9.238668e+04 9.159125e+04 9.238668e+04 9.238668e+04 1.208320e+05 1.208320e+05 1.208320e+05 1.208207e+05 1.314189e+05 1.314189e+05 1.314189e+05 1.310765e+05 1.361930e+05 1.361930e+05 1.361930e+05 1.351995e+05 1.351995e+05 9.556171e+04 9.556171e+04 9.556171e+04 9.517555e+04 1.010104e+05 1.010104e+05 1.010104e+05 1.001728e+05 1.001728e+05 1.409947e+05 1.409947e+05 1.409947e+05 1.413853e+05 1.134739e+05 1.134739e+05 1.134739e+05 1.135338e+05 1.135338e+05 8.941231e+04 8.981714e+04 1.368436e+05 1.368436e+05 1.368436e+05 1.365659e+05 1.396348e+05 1.396348e+05 1.396348e+05 1.401752e+05 1.401752e+05 1.180851e+05 1.180851e+05 1.180851e+05 1.179022e+05 1.382410e+05 1.382410e+05 1.382410e+05 1.378501e+05 9.532197e+04 1.263721e+05 1.263721e+05 1.263721e+05 1.205439e+05 1.205439e+05 1.205439e+05 1.201001e+05 1.149090e+05 1.149090e+05 1.149090e+05 1.146800e+05 1.054931e+05 1.026873e+05 1.026873e+05 1.026873e+05 1.024135e+05 1.108501e+05 1.108501e+05 1.108501e+05 1.109278e+05 1.109278e+05 8.981714e+04 8.981714e+04 8.941231e+04 1.362386e+05 1.362386e+05 1.362386e+05 1.373254e+05 1.373254e+05 1.134346e+05 1.140240e+05 1.140240e+05 1.308883e+05 1.308883e+05 1.308883e+05 1.319984e+05 1.319984e+05 1.295797e+05 1.295797e+05 1.295797e+05 1.299616e+05 9.596954e+04 9.505584e+04 9.596954e+04 9.596954e+04 9.646429e+04 1.101929e+05 1.101929e+05 1.101929e+05 1.109303e+05 1.120026e+05 1.131641e+05 1.131641e+05 1.049825e+05 1.049825e+05 1.034668e+05 1.034668e+05 1.147780e+05 1.147780e+05 1.147780e+05 1.163137e+05 1.163137e+05 1.042621e+05 1.042621e+05 1.042621e+05 1.042518e+05 1.036009e+05 1.085842e+05 1.070369e+05 1.212895e+05 1.212895e+05 1.212895e+05 1.208135e+05 1.254195e+05 1.254195e+05 1.254195e+05 1.247195e+05 1.155910e+05 1.155910e+05 1.155910e+05 1.295062e+05 1.295062e+05 1.295062e+05 1.050144e+05 1.050144e+05 1.050144e+05 1.334074e+05 1.334074e+05 1.334074e+05 9.599590e+04 9.599590e+04 9.599590e+04 9.594925e+04 9.526742e+04 1.056263e+05 1.056263e+05 1.056263e+05 9.730842e+04 9.730842e+04 9.745245e+04 1.178513e+05 1.178513e+05 1.178513e+05 1.185854e+05 1.080978e+05 1.080978e+05 1.080978e+05 1.080108e+05 1.041487e+05 1.041487e+05 1.396802e+05 1.396802e+05 1.396802e+05 1.390370e+05 9.226254e+04 9.226254e+04 9.226254e+04 9.228252e+04 9.892626e+04 9.892626e+04 9.892626e+04 9.908593e+04 1.363639e+05 1.363639e+05 1.363639e+05 1.221728e+05 1.221728e+05 1.221728e+05 1.223829e+05 1.095070e+05 1.095070e+05 1.095070e+05 1.095878e+05 1.090326e+05 1.090326e+05 1.090326e+05 1.088324e+05 1.146801e+05 1.146801e+05 1.146801e+05 1.151369e+05 1.