<?xml version="1.0"?>
 <VTKFile type="UnstructuredGrid" version="1.0" byte_order="LittleEndian" header_type="UInt64">
  <UnstructuredGrid>
    <FieldData>
     <DataArray type="Float64" Name="TimeValue" NumberOfTuples="1" format="ascii">
9e-05
     </DataArray>
    </FieldData>
   <Piece NumberOfPoints="3468" NumberOfCells="3392">
    <PointData>
     <DataArray type="Float64" Name="pointP" format="ascii">
9.322529e+04 9.332590e+04 9.352481e+04 9.390049e+04 9.396310e+04 9.429547e+04 9.429547e+04 9.446703e+04 9.471882e+04 9.501531e+04 9.501531e+04 9.526516e+04 9.534160e+04 9.566754e+04 9.566754e+04 9.582351e+04 9.598112e+04 9.618264e+04 9.643743e+04 9.650722e+04 9.657936e+04 9.687539e+04 9.700444e+04 9.700444e+04 9.724860e+04 9.735504e+04 9.740160e+04 9.752342e+04 9.777444e+04 9.783521e+04 9.794544e+04 9.805531e+04 9.814927e+04 9.823226e+04 9.833328e+04 9.843841e+04 9.859667e+04 9.872748e+04 9.881164e+04 9.889715e+04 9.898035e+04 9.901434e+04 9.914135e+04 9.926356e+04 9.932899e+04 9.935629e+04 9.947524e+04 9.954713e+04 9.958249e+04 9.965348e+04 9.972134e+04 9.980364e+04 9.992479e+04 9.992479e+04 1.000444e+05 1.000444e+05 1.001177e+05 1.002133e+05 1.002360e+05 1.002767e+05 1.003678e+05 1.004125e+05 1.004125e+05 1.004554e+05 1.005163e+05 1.005391e+05 1.006080e+05 1.006575e+05 1.006575e+05 1.007192e+05 1.007291e+05 1.007591e+05 1.007987e+05 1.008462e+05 1.008462e+05 1.008768e+05 1.009128e+05 1.009326e+05 1.009525e+05 1.009886e+05 1.010066e+05 1.010066e+05 1.010291e+05 1.010539e+05 1.010759e+05 1.010759e+05 1.010903e+05 1.011160e+05 1.011160e+05 1.011399e+05 1.011526e+05 1.011526e+05 1.011621e+05 1.011707e+05 1.011845e+05 1.011877e+05 1.012028e+05 1.012098e+05 1.012098e+05 1.012199e+05 1.012281e+05 1.012281e+05 1.012337e+05 1.012412e+05 1.012450e+05 1.012543e+05 1.012543e+05 1.012618e+05 1.012683e+05 1.012683e+05 1.012771e+05 1.012788e+05 1.012861e+05 1.012903e+05 1.012903e+05 1.012989e+05 1.013024e+05 1.013039e+05 1.013104e+05 1.013128e+05 1.013182e+05 1.013250e+05 1.013250e+05 1.013250e+05 1.013250e+05 1.013250e+05 1.012856e+05 1.012699e+05 1.012923e+05 1.014273e+05 1.021539e+05 1.021539e+05 1.027348e+05 1.027348e+05 1.006300e+05 1.006300e+05 1.006300e+05 1.006998e+05 1.006998e+05 1.013101e+05 1.013101e+05 9.993815e+04 9.993815e+04 9.993815e+04 1.003410e+05 1.003410e+05 1.010420e+05 1.010420e+05 1.010420e+05 1.012862e+05 1.017343e+05 1.017343e+05 1.015858e+05 1.012774e+05 1.012774e+05 1.012774e+05 1.012823e+05 1.012823e+05 1.012733e+05 1.012892e+05 1.012892e+05 1.012817e+05 1.013115e+05 1.012953e+05 1.012929e+05 1.013132e+05 1.013132e+05 1.013172e+05 1.013172e+05 1.013195e+05 1.013214e+05 1.000797e+05 1.000797e+05 1.000797e+05 9.990174e+04 9.990174e+04 9.972026e+04 9.766487e+04 9.766487e+04 9.766487e+04 9.764912e+04 9.769146e+04 1.004541e+05 9.932278e+04 9.932278e+04 9.940191e+04 9.779232e+04 9.779232e+04 9.783841e+04 9.932554e+04 9.932554e+04 9.932554e+04 9.303139e+04 9.303139e+04 9.303139e+04 9.384113e+04 9.384113e+04 9.384113e+04 1.006124e+05 1.006124e+05 1.006124e+05 9.631202e+04 9.631202e+04 9.631202e+04 9.867916e+04 9.867916e+04 9.867916e+04 9.871908e+04 9.585740e+04 9.585740e+04 9.763221e+04 9.763221e+04 9.763221e+04 9.327414e+04 9.351226e+04 9.751080e+04 9.751080e+04 1.000990e+05 1.000990e+05 1.000990e+05 1.002870e+05 1.002870e+05 9.997815e+04 1.002254e+05 1.002254e+05 1.016472e+05 1.016472e+05 1.016472e+05 1.008265e+05 1.008265e+05 9.694272e+04 9.694272e+04 9.694272e+04 9.748436e+04 9.515915e+04 9.634965e+04 9.849321e+04 9.849321e+04 9.800746e+04 9.800746e+04 9.800746e+04 9.572754e+04 9.515237e+04 9.515237e+04 9.672440e+04 9.672440e+04 9.672440e+04 1.003963e+05 1.003963e+05 1.003963e+05 9.757112e+04 9.757112e+04 9.757112e+04 1.016999e+05 1.012315e+05 9.334329e+04 9.334329e+04 9.334329e+04 9.383137e+04 9.931226e+04 9.931226e+04 9.397345e+04 9.824680e+04 9.824680e+04 9.824680e+04 9.356007e+04 9.356007e+04 9.834020e+04 9.834020e+04 9.714837e+04 9.714837e+04 9.714837e+04 9.529304e+04 9.529304e+04 9.529304e+04 9.539996e+04 9.539996e+04 9.539996e+04 9.375831e+04 9.375831e+04 9.849492e+04 9.849492e+04 9.431592e+04 9.431592e+04 9.431592e+04 9.843218e+04 9.896231e+04 9.896231e+04 9.896231e+04 9.395660e+04 9.848197e+04 9.848197e+04 9.686506e+04 9.686506e+04 9.686506e+04 9.944062e+04 9.944062e+04 9.944062e+04 9.548068e+04 9.586670e+04 9.586670e+04 9.586670e+04 9.474793e+04 9.474793e+04 9.474793e+04 9.355847e+04 9.363091e+04 9.651468e+04 9.651468e+04 9.651468e+04 9.675505e+04 9.675505e+04 9.938056e+04 9.938056e+04 9.938056e+04 9.412574e+04 9.412574e+04 9.412574e+04 9.417055e+04 9.422425e+04 9.410678e+04 9.410678e+04 9.889625e+04 9.889625e+04 9.889625e+04 9.472961e+04 9.472961e+04 9.644583e+04 9.644583e+04 9.321423e+04 9.451987e+04 9.451987e+04 9.568109e+04 9.568109e+04 9.568109e+04 9.791582e+04 9.451344e+04 9.530973e+04 9.530973e+04 9.835434e+04 9.835434e+04 9.798468e+04 9.798468e+04 9.798468e+04 9.687830e+04 9.687830e+04 1.001687e+05 1.001687e+05 1.001687e+05 9.955461e+04 9.955461e+04 9.955461e+04 9.752958e+04 9.397976e+04 9.917726e+04 9.917726e+04 9.917726e+04 9.650697e+04 9.650697e+04 9.650697e+04 9.590540e+04 9.587362e+04 9.397976e+04 9.688712e+04 9.973664e+04 9.973664e+04 9.973664e+04 9.726407e+04 9.726407e+04 9.997479e+04 9.997479e+04 9.997479e+04 9.748296e+04 9.748296e+04 9.748296e+04 9.717093e+04 1.002867e+05 1.002867e+05 1.002867e+05 9.749169e+04 9.640665e+04 9.640665e+04 9.699513e+04 9.890192e+04 9.890192e+04 9.716199e+04 9.784144e+04 9.784144e+04 9.801229e+04 9.801229e+04 9.772409e+04 9.683095e+04 9.949090e+04 9.949090e+04 9.949090e+04 9.811128e+04 1.002697e+05 1.002697e+05 9.527513e+04 9.820687e+04 9.820687e+04 9.821582e+04 1.007956e+05 1.007956e+05 1.007956e+05 1.000964e+05 1.000964e+05 9.844953e+04 9.844953e+04 9.865273e+04 9.865273e+04 9.731092e+04 9.991312e+04 9.991312e+04 9.991312e+04 9.924171e+04 9.924171e+04 9.924171e+04 9.634965e+04 9.994344e+04 9.994344e+04 9.922046e+04 9.916945e+04 9.570282e+04 9.713491e+04 9.772894e+04 9.772894e+04 1.004046e+05 1.004046e+05 1.004046e+05 9.869837e+04 1.009664e+05 1.009664e+05 1.009664e+05 9.911985e+04 9.911985e+04 9.879051e+04 9.762524e+04 1.007856e+05 1.007856e+05 1.007856e+05 1.004946e+05 1.004946e+05 1.004946e+05 1.006470e+05 1.006470e+05 1.003164e+05 1.003164e+05 1.002000e+05 1.002000e+05 1.000948e+05 9.815862e+04 9.815862e+04 9.879009e+04 9.879009e+04 9.953670e+04 9.953670e+04 9.807741e+04 1.009497e+05 1.010087e+05 1.010087e+05 1.010087e+05 9.941980e+04 1.005145e+05 1.005145e+05 9.970217e+04 9.970217e+04 1.001539e+05 9.833774e+04 9.946156e+04 1.000889e+05 1.000889e+05 1.002405e+05 1.002405e+05 9.918271e+04 1.010538e+05 1.010538e+05 1.010538e+05 1.011383e+05 1.011383e+05 1.011383e+05 9.973790e+04 9.973790e+04 9.973790e+04 9.948400e+04 9.948400e+04 1.012840e+05 1.012840e+05 1.012840e+05 1.010355e+05 1.010355e+05 1.010355e+05 1.004941e+05 1.010932e+05 1.010932e+05 1.010932e+05 1.005998e+05 1.005998e+05 9.980091e+04 1.010473e+05 1.010473e+05 1.012187e+05 1.012187e+05 1.012187e+05 9.993089e+04 9.993089e+04 1.003928e+05 1.003928e+05 1.007859e+05 1.007859e+05 1.007859e+05 1.012004e+05 1.012004e+05 1.012004e+05 1.007510e+05 1.012055e+05 1.012055e+05 1.012055e+05 1.012910e+05 1.012910e+05 1.012910e+05 1.009097e+05 1.009097e+05 1.009097e+05 1.007991e+05 1.009344e+05 1.009344e+05 1.008269e+05 1.003863e+05 1.003863e+05 1.012893e+05 1.009467e+05 1.009467e+05 1.009467e+05 1.012203e+05 1.012203e+05 1.012203e+05 1.009424e+05 1.009424e+05 1.009424e+05 1.011119e+05 1.011119e+05 1.011119e+05 1.010273e+05 1.010273e+05 1.010695e+05 1.010695e+05 1.011913e+05 1.011913e+05 1.011714e+05 1.011714e+05 1.011714e+05 1.009052e+05 1.009052e+05 1.008261e+05 1.008261e+05 1.011994e+05 1.012063e+05 1.012063e+05 1.010219e+05 1.010219e+05 1.010683e+05 1.012256e+05 1.012256e+05 1.012256e+05 1.011107e+05 1.011107e+05 1.011832e+05 1.011832e+05 1.010795e+05 1.014159e+05 1.014159e+05 1.014159e+05 1.021846e+05 1.021846e+05 1.021846e+05 1.012366e+05 1.012366e+05 1.012535e+05 1.012535e+05 1.012535e+05 1.012162e+05 1.012702e+05 1.012702e+05 1.012326e+05 1.017151e+05 9.574528e+04 1.007422e+05 9.557653e+04 9.848529e+04 1.022468e+05 1.013029e+05 1.013029e+05 1.013029e+05 1.011562e+05 1.011562e+05 1.009707e+05 1.009875e+05 1.013081e+05 1.011004e+05 1.019986e+05 1.005174e+05 1.012600e+05 1.012600e+05 1.012371e+05 1.012371e+05 1.012371e+05 1.012375e+05 1.011173e+05 1.009628e+05 1.009628e+05 1.010049e+05 1.010049e+05 1.010049e+05 1.010080e+05 1.001381e+05 1.000064e+05 9.490051e+04 9.516229e+04 9.516229e+04 9.323137e+04 9.746708e+04 9.746708e+04 1.006551e+05 1.007749e+05 1.012622e+05 1.012622e+05 1.012622e+05 1.012837e+05 1.012837e+05 9.363529e+04 9.363529e+04 9.628992e+04 9.483471e+04 9.382413e+04 9.384720e+04 9.430898e+04 9.430898e+04 9.430898e+04 9.686585e+04 9.491653e+04 9.535178e+04 9.819024e+04 9.707427e+04 9.641620e+04 9.641620e+04 9.641620e+04 9.622220e+04 9.622220e+04 9.365389e+04 9.399871e+04 9.543791e+04 9.346548e+04 9.678966e+04 9.477069e+04 9.452093e+04 9.452093e+04 9.413535e+04 9.590579e+04 9.590579e+04 9.567025e+04 9.450829e+04 9.591773e+04 9.720673e+04 9.727443e+04 9.754446e+04 9.562381e+04 9.562381e+04 9.562381e+04 9.507070e+04 9.507070e+04 9.658307e+04 9.663840e+04 9.522240e+04 9.497068e+04 9.603366e+04 9.421198e+04 9.467113e+04 9.909913e+04 9.668880e+04 9.509951e+04 9.716811e+04 9.569349e+04 9.612413e+04 9.807852e+04 9.801906e+04 9.857909e+04 9.588979e+04 9.438245e+04 9.988843e+04 9.988843e+04 9.501409e+04 9.864860e+04 9.864860e+04 9.697354e+04 9.697354e+04 9.856605e+04 1.000350e+05 9.969132e+04 9.969132e+04 9.969132e+04 9.602132e+04 9.616185e+04 9.616185e+04 9.994445e+04 1.002563e+05 9.708827e+04 9.958201e+04 9.955178e+04 9.955178e+04 9.871411e+04 9.793439e+04 9.817557e+04 9.817557e+04 9.887727e+04 9.882112e+04 9.898452e+04 9.958471e+04 9.958033e+04 1.004368e+05 1.004368e+05 9.790795e+04 9.687881e+04 9.873439e+04 9.873439e+04 9.873439e+04 9.924221e+04 9.961769e+04 9.724604e+04 9.863205e+04 1.001286e+05 1.001286e+05 1.001286e+05 9.829317e+04 9.829317e+04 9.979526e+04 9.918017e+04 1.005005e+05 9.900667e+04 1.003677e+05 1.006010e+05 1.006010e+05 1.001845e+05 1.000529e+05 9.928516e+04 9.976201e+04 9.979272e+04 9.946949e+04 1.005236e+05 1.005236e+05 1.005236e+05 1.002380e+05 9.883091e+04 9.932786e+04 1.005610e+05 9.839300e+04 9.904250e+04 9.904250e+04 1.006977e+05 1.006675e+05 1.011234e+05 1.011234e+05 9.916061e+04 1.009339e+05 1.009339e+05 1.008995e+05 1.005974e+05 1.005974e+05 1.008840e+05 1.008840e+05 9.965567e+04 1.007277e+05 1.009462e+05 1.009767e+05 1.009767e+05 9.946228e+04 1.003536e+05 1.003536e+05 1.006513e+05 1.006513e+05 1.006513e+05 9.990065e+04 9.990065e+04 1.001947e+05 1.008388e+05 1.008388e+05 1.011047e+05 1.010684e+05 1.009355e+05 1.003497e+05 1.007484e+05 1.004015e+05 1.004772e+05 1.006209e+05 1.005933e+05 1.009943e+05 1.011694e+05 1.011694e+05 1.011694e+05 1.009736e+05 1.010266e+05 1.010732e+05 1.010732e+05 1.010732e+05 1.008424e+05 1.007144e+05 1.007144e+05 1.007144e+05 1.011508e+05 1.001840e+05 1.011770e+05 1.011770e+05 1.010090e+05 1.003977e+05 9.988508e+04 1.003120e+05 1.007243e+05 1.012796e+05 1.012796e+05 1.008142e+05 1.005190e+05 1.010894e+05 1.002645e+05 1.008909e+05 1.008909e+05 1.008909e+05 1.011401e+05 1.011091e+05 1.011091e+05 1.011091e+05 1.011991e+05 1.011991e+05 1.011554e+05 1.007852e+05 1.012443e+05 1.012417e+05 1.010461e+05 1.010908e+05 1.010908e+05 1.012309e+05 1.012309e+05 1.004529e+05 1.011240e+05 1.012114e+05 1.012114e+05 1.011631e+05 1.011631e+05 9.985596e+04 1.010583e+05 1.009114e+05 1.012572e+05 1.012572e+05 1.012487e+05 1.012487e+05 1.012487e+05 1.012595e+05 1.012351e+05 1.012351e+05 1.010176e+05 1.008245e+05 1.008765e+05 1.011355e+05 1.011447e+05 1.011447e+05 1.012548e+05 1.010909e+05 1.011875e+05 1.011344e+05 1.011592e+05 1.011592e+05 1.011075e+05 1.010741e+05 1.012042e+05 1.012042e+05 1.012402e+05 1.012402e+05 1.011707e+05 1.011707e+05 1.013091e+05 1.012755e+05 1.013039e+05 1.012903e+05 1.007871e+05 1.007871e+05 1.012116e+05 1.012656e+05 1.012656e+05 1.012686e+05 1.012686e+05 1.012942e+05 1.012942e+05 1.012459e+05 1.008882e+05 1.008609e+05 1.011988e+05 1.011380e+05 1.012668e+05 1.011885e+05 1.011821e+05 1.012718e+05 1.012718e+05 1.006274e+05 1.012247e+05 1.012247e+05 1.012247e+05 1.012274e+05 1.013020e+05 1.012958e+05 1.011281e+05 1.009014e+05 1.011713e+05 1.011664e+05 1.012556e+05 1.012988e+05 1.010560e+05 1.013039e+05 1.012767e+05 1.011825e+05 1.012620e+05 1.012095e+05 1.012842e+05 1.012623e+05 1.012533e+05 1.012493e+05 1.012565e+05 1.011331e+05 1.011768e+05 1.012286e+05 1.012161e+05 1.012161e+05 1.012523e+05 1.012523e+05 1.012813e+05 1.012813e+05 1.012332e+05 1.012720e+05 1.012653e+05 1.013250e+05 1.013250e+05 1.013250e+05 1.013250e+05 1.013110e+05 1.012886e+05 1.012711e+05 1.012919e+05 1.014276e+05 1.021621e+05 1.036923e+05 1.012854e+05 1.012854e+05 1.012854e+05 1.012515e+05 1.014205e+05 1.011388e+05 1.011727e+05 1.012577e+05 1.012577e+05 1.012577e+05 1.012559e+05 1.010753e+05 1.010753e+05 1.010753e+05 1.010839e+05 1.023018e+05 1.023018e+05 1.023018e+05 1.022642e+05 1.022642e+05 1.012856e+05 1.012856e+05 1.012856e+05 1.012949e+05 1.012949e+05 1.019070e+05 1.012797e+05 1.012797e+05 1.012889e+05 1.012698e+05 1.012698e+05 1.012711e+05 1.010720e+05 1.013016e+05 1.013016e+05 1.013016e+05 1.013137e+05 1.013137e+05 1.013137e+05 1.013161e+05 1.012903e+05 1.012938e+05 1.012938e+05 1.012938e+05 1.021971e+05 1.025671e+05 1.021971e+05 1.021971e+05 1.012960e+05 1.012997e+05 1.034871e+05 1.039237e+05 1.034871e+05 1.034871e+05 1.012108e+05 1.012075e+05 1.012075e+05 1.012075e+05 1.012153e+05 1.013169e+05 1.013169e+05 1.013110e+05 1.048384e+05 1.012917e+05 1.012917e+05 1.013047e+05 1.011906e+05 1.011906e+05 1.030309e+05 9.778050e+04 9.778050e+04 9.778050e+04 9.783521e+04 1.001838e+05 1.001838e+05 1.001838e+05 1.002307e+05 1.002307e+05 1.010823e+05 1.010823e+05 1.010823e+05 1.010571e+05 1.010571e+05 9.952421e+04 9.952421e+04 9.952421e+04 9.941416e+04 1.010126e+05 1.010126e+05 1.010126e+05 1.010233e+05 1.002401e+05 1.002401e+05 1.002401e+05 1.002634e+05 1.002800e+05 1.002850e+05 9.864897e+04 9.864897e+04 9.864897e+04 9.860325e+04 9.860596e+04 9.954713e+04 9.954713e+04 9.983018e+04 9.983018e+04 9.983018e+04 9.836584e+04 9.836584e+04 9.836584e+04 9.769962e+04 9.769962e+04 9.769962e+04 1.009548e+05 1.009548e+05 1.008501e+05 1.008501e+05 1.011453e+05 1.011453e+05 1.011453e+05 1.011398e+05 9.572358e+04 9.572358e+04 9.572358e+04 1.003727e+05 1.003727e+05 1.003727e+05 9.790539e+04 9.790539e+04 9.790539e+04 9.975572e+04 9.975572e+04 9.975572e+04 9.706991e+04 9.706991e+04 9.706991e+04 9.675923e+04 9.675923e+04 9.554993e+04 9.554993e+04 9.462092e+04 9.462092e+04 9.462092e+04 9.745346e+04 9.745346e+04 9.745346e+04 9.902438e+04 9.902438e+04 9.902438e+04 9.848114e+04 9.741460e+04 1.009918e+05 1.009918e+05 1.009918e+05 1.005600e+05 1.005600e+05 1.005600e+05 9.995169e+04 9.995169e+04 1.018242e+05 1.018242e+05 1.016554e+05 1.005523e+05 1.005523e+05 1.005523e+05 1.004851e+05 1.004851e+05 1.004851e+05 9.828272e+04 9.856740e+04 9.967348e+04 9.967348e+04 9.967348e+04 1.009155e+05 1.009155e+05 1.009155e+05 9.978856e+04 9.694119e+04 9.748546e+04 9.748546e+04 9.748546e+04 9.469888e+04 9.469888e+04 9.469888e+04 9.813973e+04 9.813973e+04 9.851819e+04 9.851819e+04 9.951374e+04 9.990122e+04 9.990122e+04 1.009935e+05 1.009935e+05 1.009935e+05 1.009170e+05 1.010673e+05 1.010673e+05 1.012708e+05 1.012708e+05 1.012708e+05 9.397023e+04 9.623506e+04 9.623506e+04 9.623506e+04 9.479177e+04 9.479177e+04 9.454598e+04 9.898035e+04 9.898035e+04 9.501768e+04 9.501768e+04 9.798471e+04 9.798471e+04 9.798471e+04 9.440469e+04 9.531318e+04 9.531318e+04 9.531318e+04 9.684668e+04 9.684668e+04 9.684668e+04 9.557635e+04 9.557635e+04 9.740434e+04 9.740434e+04 9.740434e+04 9.754643e+04 9.594195e+04 9.594195e+04 9.594195e+04 9.692592e+04 9.692592e+04 9.692592e+04 9.410791e+04 9.410791e+04 9.410791e+04 9.444682e+04 9.444682e+04 9.448017e+04 9.623714e+04 9.623714e+04 9.624368e+04 9.624368e+04 9.517095e+04 9.517095e+04 9.658924e+04 9.448017e+04 9.448017e+04 9.885173e+04 9.885173e+04 9.885173e+04 9.567925e+04 9.483528e+04 9.477777e+04 9.722805e+04 9.722805e+04 9.905525e+04 9.905525e+04 9.905525e+04 9.878109e+04 9.838974e+04 1.006345e+05 1.006345e+05 1.006345e+05 9.493498e+04 9.956044e+04 9.956044e+04 9.956044e+04 9.790278e+04 9.790278e+04 9.790278e+04 9.586489e+04 1.007267e+05 1.007267e+05 1.007267e+05 9.910243e+04 9.863104e+04 9.863104e+04 9.863104e+04 9.884833e+04 9.524724e+04 9.473433e+04 1.008222e+05 1.008222e+05 1.008222e+05 9.642731e+04 9.642731e+04 9.532993e+04 9.532993e+04 9.585654e+04 9.617580e+04 9.982839e+04 9.655565e+04 9.805754e+04 9.805754e+04 1.000115e+05 1.000115e+05 1.000115e+05 1.009030e+05 1.009030e+05 1.009030e+05 9.941089e+04 9.941089e+04 9.941089e+04 1.008261e+05 1.008261e+05 9.791007e+04 9.791007e+04 9.825327e+04 9.825327e+04 9.914572e+04 9.914572e+04 9.914572e+04 9.680514e+04 9.680514e+04 9.565172e+04 9.565172e+04 9.901290e+04 9.901290e+04 9.593775e+04 9.593775e+04 9.593775e+04 9.756624e+04 1.008828e+05 1.008828e+05 9.960772e+04 9.934530e+04 9.934530e+04 9.934530e+04 9.632003e+04 9.730223e+04 1.000116e+05 1.000116e+05 1.000116e+05 1.001219e+05 1.001219e+05 9.888597e+04 9.888597e+04 9.888597e+04 9.645091e+04 1.003724e+05 1.003724e+05 1.003724e+05 9.876996e+04 9.920663e+04 1.001863e+05 1.005534e+05 1.005534e+05 1.006311e+05 1.006311e+05 9.932560e+04 1.000538e+05 1.000538e+05 1.000538e+05 9.959535e+04 9.790552e+04 9.790552e+04 1.001654e+05 1.001654e+05 1.003434e+05 1.003434e+05 1.010390e+05 1.010390e+05 9.906740e+04 9.741460e+04 1.004893e+05 1.004893e+05 1.004893e+05 9.813725e+04 9.837198e+04 1.011318e+05 1.011318e+05 1.011318e+05 1.000209e+05 9.902176e+04 9.902176e+04 9.876296e+04 1.011959e+05 1.011959e+05 1.011959e+05 1.002249e+05 9.862929e+04 9.895937e+04 1.011433e+05 1.011433e+05 1.007801e+05 1.007801e+05 1.007801e+05 1.008359e+05 1.008359e+05 1.008359e+05 9.928785e+04 9.972323e+04 1.012025e+05 1.012025e+05 1.012025e+05 1.005785e+05 1.005785e+05 1.005785e+05 1.005584e+05 1.011891e+05 1.011891e+05 1.011891e+05 1.001645e+05 1.013709e+05 1.006077e+05 1.008876e+05 1.008876e+05 1.000051e+05 1.000595e+05 1.002000e+05 1.012245e+05 1.012245e+05 1.012245e+05 1.011504e+05 1.012811e+05 1.012811e+05 1.012811e+05 1.009343e+05 1.007299e+05 1.007299e+05 1.006988e+05 1.007203e+05 1.013259e+05 1.013259e+05 1.002804e+05 1.002804e+05 1.011611e+05 1.011126e+05 1.011126e+05 1.011349e+05 1.007399e+05 1.007399e+05 1.005901e+05 1.004935e+05 1.012567e+05 1.012567e+05 1.014375e+05 1.012056e+05 1.012056e+05 1.009092e+05 1.013095e+05 1.011182e+05 1.011182e+05 1.011628e+05 1.011837e+05 1.011837e+05 1.011837e+05 1.010723e+05 1.029358e+05 1.029358e+05 1.010825e+05 1.010825e+05 1.013013e+05 1.012263e+05 1.012771e+05 1.012771e+05 1.012177e+05 1.012327e+05 1.012327e+05 1.009390e+05 1.001315e+05 1.005049e+05 1.005354e+05 1.005354e+05 1.012430e+05 1.006918e+05 1.004934e+05 1.004934e+05 9.397023e+04 9.397023e+04 1.009212e+05 9.974639e+04 1.011550e+05 1.011550e+05 1.008764e+05 1.006227e+05 1.002540e+05 1.002540e+05 9.854891e+04 9.965071e+04 9.618264e+04 1.007987e+05 1.012543e+05 1.012788e+05 1.012788e+05 1.012861e+05 9.396310e+04 9.396310e+04 9.429547e+04 9.452808e+04 9.452808e+04 9.322529e+04 9.331636e+04 9.322529e+04 9.411416e+04 9.628147e+04 9.342712e+04 9.375217e+04 9.375217e+04 9.375217e+04 9.501531e+04 9.535644e+04 9.535644e+04 9.535644e+04 9.526516e+04 9.526516e+04 9.353922e+04 9.650722e+04 9.650722e+04 9.566754e+04 9.582351e+04 9.487314e+04 9.487314e+04 9.598112e+04 9.805531e+04 9.663396e+04 9.588909e+04 9.700444e+04 9.366483e+04 9.366483e+04 9.558225e+04 9.342953e+04 9.603921e+04 9.443571e+04 9.411282e+04 9.735504e+04 9.735504e+04 9.814927e+04 9.724860e+04 9.820219e+04 9.652693e+04 9.561170e+04 9.520577e+04 9.706406e+04 9.756370e+04 9.756370e+04 9.756370e+04 9.759628e+04 9.608226e+04 9.625544e+04 9.570146e+04 9.570146e+04 9.678263e+04 9.932899e+04 9.932899e+04 9.677233e+04 9.538532e+04 9.697479e+04 9.758069e+04 9.881164e+04 9.881164e+04 9.655325e+04 9.655325e+04 9.655325e+04 9.828832e+04 9.828832e+04 9.634323e+04 9.833328e+04 9.766604e+04 9.921772e+04 9.921772e+04 9.921772e+04 9.685135e+04 9.913789e+04 9.913789e+04 9.813341e+04 9.770827e+04 1.001177e+05 1.001177e+05 9.843841e+04 9.859667e+04 9.859667e+04 1.000444e+05 9.872748e+04 9.593861e+04 9.816820e+04 9.900367e+04 9.854321e+04 9.854321e+04 9.984715e+04 9.984715e+04 9.984715e+04 9.717285e+04 9.965348e+04 9.947524e+04 9.710733e+04 9.736243e+04 9.859164e+04 9.868535e+04 9.939984e+04 9.956086e+04 9.956086e+04 9.818952e+04 9.818952e+04 9.787931e+04 9.785100e+04 9.654926e+04 9.840580e+04 9.889562e+04 9.737784e+04 9.797839e+04 9.992479e+04 9.970426e+04 9.970426e+04 9.970426e+04 1.003044e+05 9.780796e+04 9.935458e+04 9.935458e+04 1.004125e+05 9.981197e+04 1.006080e+05 1.006080e+05 1.003915e+05 9.991205e+04 1.000245e+05 1.000245e+05 1.007192e+05 1.005163e+05 1.005163e+05 1.001087e+05 9.981231e+04 1.004554e+05 1.006001e+05 9.952918e+04 9.917149e+04 9.929271e+04 9.996273e+04 9.916332e+04 1.007454e+05 1.005799e+05 1.004895e+05 1.005485e+05 1.004273e+05 9.973195e+04 1.009128e+05 1.009128e+05 1.009326e+05 1.009286e+05 9.873456e+04 1.006474e+05 1.006474e+05 1.009480e+05 1.009480e+05 1.009556e+05 9.988687e+04 1.010756e+05 1.000502e+05 1.006722e+05 1.007979e+05 9.997896e+04 1.008462e+05 9.949750e+04 1.007086e+05 1.007086e+05 1.009886e+05 1.003947e+05 1.011845e+05 1.011845e+05 1.011526e+05 1.010017e+05 1.004355e+05 9.930068e+04 1.011399e+05 1.002516e+05 1.010635e+05 1.010635e+05 1.010759e+05 1.010539e+05 1.009519e+05 1.011160e+05 1.011205e+05 1.005649e+05 1.011294e+05 1.008738e+05 1.008738e+05 1.007931e+05 1.011621e+05 1.011707e+05 9.826359e+04 1.012098e+05 1.010243e+05 1.012281e+05 1.007294e+05 1.012580e+05 1.012580e+05 1.010903e+05 1.011450e+05 1.006126e+05 1.006126e+05 1.012477e+05 1.012477e+05 1.012477e+05 1.008329e+05 1.011857e+05 1.009843e+05 9.956148e+04 1.010845e+05 1.012028e+05 9.939142e+04 1.012199e+05 1.012199e+05 1.011691e+05 1.003409e+05 1.011828e+05 1.011099e+05 1.011999e+05 1.011177e+05 1.012009e+05 1.012123e+05 1.012123e+05 1.009606e+05 1.009539e+05 1.012594e+05 1.011451e+05 1.009954e+05 1.009954e+05 1.009954e+05 1.010925e+05 1.012617e+05 1.012308e+05 1.012384e+05 1.012384e+05 1.012384e+05 1.012683e+05 1.011045e+05 1.011045e+05 1.012501e+05 1.012558e+05 1.012121e+05 1.012412e+05 1.012213e+05 1.012788e+05 1.013104e+05 1.012634e+05 1.012603e+05 1.010142e+05 1.012704e+05 1.012845e+05 1.010597e+05 1.011761e+05 1.011761e+05 1.012266e+05 1.012266e+05 1.012372e+05 1.012158e+05 1.012546e+05 1.011579e+05 1.012123e+05 1.012389e+05 1.012430e+05 1.013024e+05 1.003306e+05 1.012650e+05 1.012490e+05 1.012367e+05 1.012387e+05 1.012720e+05 1.012085e+05 1.012374e+05 1.012291e+05 1.006690e+05 1.012843e+05 1.013182e+05 1.012420e+05 1.012420e+05 1.012697e+05 1.012697e+05 1.008275e+05 1.008275e+05 1.012860e+05 1.012408e+05 1.012233e+05 1.012890e+05 1.012220e+05 1.011282e+05 1.010594e+05 1.012944e+05 1.012445e+05 1.012711e+05 1.012726e+05 1.012639e+05 1.013144e+05 1.013198e+05 1.013149e+05 9.322529e+04 9.332590e+04 9.352481e+04 9.390049e+04 9.396310e+04 9.429547e+04 9.429547e+04 9.446703e+04 9.471882e+04 9.501531e+04 9.501531e+04 9.526516e+04 9.534160e+04 9.566754e+04 9.566754e+04 9.582351e+04 9.598112e+04 9.618264e+04 9.643743e+04 9.650722e+04 9.657936e+04 9.687539e+04 9.700444e+04 9.700444e+04 9.724860e+04 9.735504e+04 9.740160e+04 9.752342e+04 9.777444e+04 9.783521e+04 9.794544e+04 9.805531e+04 9.814927e+04 9.823226e+04 9.833328e+04 9.843841e+04 9.859667e+04 9.872748e+04 9.881164e+04 9.889715e+04 9.898035e+04 9.901434e+04 9.914135e+04 9.926356e+04 9.932899e+04 9.935629e+04 9.947524e+04 9.954713e+04 9.958249e+04 9.965348e+04 9.972134e+04 9.980364e+04 9.992479e+04 9.992479e+04 1.000444e+05 1.000444e+05 1.001177e+05 1.002133e+05 1.002360e+05 1.002767e+05 1.003678e+05 1.004125e+05 1.004125e+05 1.004554e+05 1.005163e+05 1.005391e+05 1.006080e+05 1.006575e+05 1.006575e+05 1.007192e+05 1.007291e+05 1.007591e+05 1.007987e+05 1.008462e+05 1.008462e+05 1.008768e+05 1.009128e+05 1.009326e+05 1.009525e+05 1.009886e+05 1.010066e+05 1.010066e+05 1.010291e+05 1.010539e+05 1.010759e+05 1.010759e+05 1.010903e+05 1.011160e+05 1.011160e+05 1.011399e+05 1.011526e+05 1.011526e+05 1.011621e+05 1.011707e+05 1.011845e+05 1.011877e+05 1.012028e+05 1.012098e+05 1.012098e+05 1.012199e+05 1.012281e+05 1.012281e+05 1.012337e+05 1.012412e+05 1.012450e+05 1.012543e+05 1.012543e+05 1.012618e+05 1.012683e+05 1.012683e+05 1.012771e+05 1.012788e+05 1.012861e+05 1.012903e+05 1.012903e+05 1.012989e+05 1.013024e+05 1.013039e+05 1.013104e+05 1.013128e+05 1.013182e+05 1.013250e+05 1.013250e+05 1.013250e+05 1.013250e+05 1.013250e+05 1.013115e+05 1.012856e+05 1.012720e+05 1.012923e+05 1.017343e+05 1.027348e+05 1.027348e+05 1.027348e+05 1.006300e+05 1.006300e+05 1.006300e+05 1.006998e+05 1.006998e+05 1.013101e+05 1.013101e+05 9.993815e+04 9.993815e+04 9.993815e+04 1.003410e+05 1.003410e+05 1.010420e+05 1.010420e+05 1.010420e+05 1.012862e+05 1.017343e+05 1.017343e+05 1.015858e+05 1.012774e+05 1.012774e+05 1.012774e+05 1.012823e+05 1.012823e+05 1.012733e+05 1.012892e+05 1.012892e+05 1.012817e+05 1.013115e+05 1.012953e+05 1.012929e+05 1.013132e+05 1.013132e+05 1.013172e+05 1.013172e+05 1.013195e+05 1.013214e+05 1.000797e+05 1.000797e+05 1.000797e+05 9.990174e+04 9.990174e+04 9.972026e+04 9.766487e+04 9.766487e+04 9.766487e+04 9.764912e+04 9.769146e+04 1.004541e+05 9.932278e+04 9.932278e+04 9.940191e+04 9.779232e+04 9.779232e+04 9.783841e+04 9.932554e+04 9.932554e+04 9.932554e+04 9.303139e+04 9.303139e+04 9.303139e+04 9.384113e+04 9.384113e+04 9.384113e+04 1.006124e+05 1.006124e+05 1.006124e+05 9.631202e+04 9.631202e+04 9.631202e+04 9.867916e+04 9.867916e+04 9.867916e+04 9.871908e+04 9.585740e+04 9.585740e+04 9.763221e+04 9.763221e+04 9.763221e+04 9.327414e+04 9.351226e+04 9.751080e+04 9.751080e+04 1.000990e+05 1.000990e+05 1.000990e+05 1.002870e+05 1.002870e+05 9.997815e+04 1.002254e+05 1.002254e+05 1.016472e+05 1.016472e+05 1.016472e+05 1.008265e+05 1.008265e+05 9.694272e+04 9.694272e+04 9.694272e+04 9.748436e+04 9.515915e+04 9.634965e+04 9.849321e+04 9.849321e+04 9.800746e+04 9.800746e+04 9.800746e+04 9.572754e+04 9.515237e+04 9.515237e+04 9.672440e+04 9.672440e+04 9.672440e+04 1.003963e+05 1.003963e+05 1.003963e+05 9.757112e+04 9.757112e+04 9.757112e+04 1.016999e+05 1.012315e+05 9.334329e+04 9.334329e+04 9.334329e+04 9.383137e+04 9.931226e+04 9.931226e+04 9.397345e+04 9.824680e+04 9.824680e+04 9.824680e+04 9.356007e+04 9.356007e+04 9.834020e+04 9.834020e+04 9.714837e+04 9.714837e+04 9.714837e+04 9.529304e+04 9.529304e+04 9.529304e+04 9.539996e+04 9.539996e+04 9.539996e+04 9.375831e+04 9.375831e+04 9.849492e+04 9.849492e+04 9.431592e+04 9.431592e+04 9.431592e+04 9.843218e+04 9.896231e+04 9.896231e+04 9.896231e+04 9.395660e+04 9.848197e+04 9.848197e+04 9.686506e+04 9.686506e+04 9.686506e+04 9.944062e+04 9.944062e+04 9.944062e+04 9.548068e+04 9.586670e+04 9.586670e+04 9.586670e+04 9.474793e+04 9.474793e+04 9.474793e+04 9.355847e+04 9.363091e+04 9.651468e+04 9.651468e+04 9.651468e+04 9.675505e+04 9.675505e+04 9.938056e+04 9.938056e+04 9.938056e+04 9.412574e+04 9.412574e+04 9.412574e+04 9.417055e+04 9.422425e+04 9.410678e+04 9.410678e+04 9.889625e+04 9.889625e+04 9.889625e+04 9.472961e+04 9.472961e+04 9.644583e+04 9.644583e+04 9.321423e+04 9.451987e+04 9.451987e+04 9.568109e+04 9.568109e+04 9.568109e+04 9.791582e+04 9.451344e+04 9.530973e+04 9.530973e+04 9.835434e+04 9.835434e+04 9.798468e+04 9.798468e+04 9.798468e+04 9.687830e+04 9.687830e+04 1.001687e+05 1.001687e+05 1.001687e+05 9.955461e+04 9.955461e+04 9.955461e+04 9.752958e+04 9.397976e+04 9.917726e+04 9.917726e+04 9.917726e+04 9.650697e+04 9.650697e+04 9.650697e+04 9.590540e+04 9.587362e+04 9.397976e+04 9.688712e+04 9.973664e+04 9.973664e+04 9.973664e+04 9.726407e+04 9.726407e+04 9.997479e+04 9.997479e+04 9.997479e+04 9.748296e+04 9.748296e+04 9.748296e+04 9.717093e+04 1.002867e+05 1.002867e+05 1.002867e+05 9.749169e+04 9.640665e+04 9.640665e+04 9.699513e+04 9.890192e+04 9.890192e+04 9.716199e+04 9.784144e+04 9.784144e+04 9.801229e+04 9.801229e+04 9.772409e+04 9.683095e+04 9.949090e+04 9.949090e+04 9.949090e+04 9.811128e+04 1.002697e+05 1.002697e+05 9.527513e+04 9.820687e+04 9.820687e+04 9.821582e+04 1.007956e+05 1.007956e+05 1.007956e+05 1.000964e+05 1.000964e+05 9.844953e+04 9.844953e+04 9.865273e+04 9.865273e+04 9.731092e+04 9.991312e+04 9.991312e+04 9.991312e+04 9.924171e+04 9.924171e+04 9.924171e+04 9.634965e+04 9.994344e+04 9.994344e+04 9.922046e+04 9.916945e+04 9.570282e+04 9.713491e+04 9.772894e+04 9.772894e+04 1.004046e+05 1.004046e+05 1.004046e+05 9.869837e+04 1.009664e+05 1.009664e+05 1.009664e+05 9.911985e+04 9.911985e+04 9.879051e+04 9.762524e+04 1.007856e+05 1.007856e+05 1.007856e+05 1.004946e+05 1.004946e+05 1.004946e+05 1.006470e+05 1.006470e+05 1.003164e+05 1.003164e+05 1.002000e+05 1.002000e+05 1.000948e+05 9.815862e+04 9.815862e+04 9.879009e+04 9.879009e+04 9.953670e+04 9.953670e+04 9.807741e+04 1.009497e+05 1.010087e+05 1.010087e+05 1.010087e+05 9.941980e+04 1.005145e+05 1.005145e+05 9.970217e+04 9.970217e+04 1.001539e+05 9.833774e+04 9.946156e+04 1.000889e+05 1.000889e+05 1.002405e+05 1.002405e+05 9.918271e+04 1.010538e+05 1.010538e+05 1.010538e+05 1.011383e+05 1.011383e+05 1.011383e+05 9.973790e+04 9.973790e+04 9.973790e+04 9.948400e+04 9.948400e+04 1.012840e+05 1.012840e+05 1.012840e+05 1.010355e+05 1.010355e+05 1.010355e+05 1.004941e+05 1.010932e+05 1.010932e+05 1.010932e+05 1.005998e+05 1.005998e+05 9.980091e+04 1.010473e+05 1.010473e+05 1.012187e+05 1.012187e+05 1.012187e+05 9.993089e+04 9.993089e+04 1.003928e+05 1.003928e+05 1.007859e+05 1.007859e+05 1.007859e+05 1.012004e+05 1.012004e+05 1.012004e+05 1.007510e+05 1.012055e+05 1.012055e+05 1.012055e+05 1.012910e+05 1.012910e+05 1.012910e+05 1.009097e+05 1.009097e+05 1.009097e+05 1.007991e+05 1.009344e+05 1.009344e+05 1.008269e+05 1.003863e+05 1.003863e+05 1.012893e+05 1.009467e+05 1.009467e+05 1.009467e+05 1.012203e+05 1.012203e+05 1.012203e+05 1.009424e+05 1.009424e+05 1.009424e+05 1.011119e+05 1.011119e+05 1.