<?xml version="1.0"?>
 <VTKFile type="UnstructuredGrid" version="1.0" byte_order="LittleEndian" header_type="UInt64">
  <UnstructuredGrid>
    <FieldData>
     <DataArray type="Float64" Name="TimeValue" NumberOfTuples="1" format="ascii">
1e-05
     </DataArray>
    </FieldData>
   <Piece NumberOfPoints="3548" NumberOfCells="3379">
    <PointData>
     <DataArray type="Float64" Name="pointP" format="ascii">
1.016849e+05 1.016876e+05 1.016930e+05 1.016968e+05 1.016996e+05 1.016977e+05 1.016969e+05 1.017014e+05 1.017003e+05 1.017014e+05 1.017013e+05 1.016956e+05 1.016960e+05 1.016961e+05 1.016932e+05 1.016956e+05 1.016974e+05 1.016954e+05 1.016952e+05 1.016992e+05 1.017019e+05 1.016965e+05 1.017022e+05 1.017072e+05 1.017054e+05 1.017057e+05 1.017066e+05 1.017137e+05 1.017188e+05 1.017255e+05 1.017276e+05 1.017343e+05 1.017378e+05 1.017397e+05 1.017471e+05 1.017495e+05 1.017455e+05 1.017518e+05 1.017548e+05 1.017618e+05 1.017637e+05 1.017695e+05 1.017733e+05 1.017737e+05 1.017794e+05 1.017803e+05 1.017880e+05 1.017900e+05 1.017861e+05 1.017928e+05 1.017940e+05 1.018011e+05 1.018045e+05 1.018035e+05 1.018081e+05 1.018073e+05 1.018229e+05 1.018208e+05 1.018280e+05 1.018310e+05 1.018361e+05 1.018385e+05 1.018392e+05 1.018443e+05 1.018438e+05 1.018519e+05 1.018563e+05 1.018542e+05 1.018512e+05 1.018493e+05 1.018442e+05 1.018429e+05 1.018391e+05 1.018377e+05 1.018368e+05 1.018369e+05 1.018377e+05 1.018469e+05 1.018471e+05 1.018512e+05 1.018509e+05 1.018509e+05 1.018653e+05 1.018703e+05 1.018817e+05 1.018833e+05 1.018833e+05 1.018783e+05 1.018821e+05 1.018786e+05 1.018784e+05 1.018863e+05 1.018871e+05 1.018881e+05 1.018886e+05 1.018905e+05 1.018917e+05 1.018930e+05 1.018954e+05 1.018986e+05 1.019003e+05 1.019012e+05 1.019012e+05 1.019039e+05 1.019049e+05 1.019074e+05 1.019070e+05 1.019100e+05 1.019110e+05 1.019100e+05 1.019123e+05 1.019116e+05 1.019151e+05 1.019138e+05 1.019199e+05 1.019168e+05 1.019165e+05 1.019184e+05 1.019202e+05 1.019201e+05 1.019199e+05 1.019199e+05 1.019195e+05 1.019207e+05 1.019268e+05 1.019209e+05 1.019222e+05 1.019224e+05 1.019224e+05 1.019221e+05 1.019226e+05 1.019253e+05 1.019253e+05 1.019213e+05 1.019231e+05 1.019231e+05 1.019234e+05 1.019226e+05 1.019243e+05 1.019251e+05 1.019251e+05 1.019200e+05 1.019200e+05 1.019218e+05 1.019225e+05 1.019217e+05 1.019215e+05 1.019238e+05 1.019163e+05 1.019163e+05 1.019178e+05 1.019171e+05 1.019168e+05 1.019154e+05 1.019154e+05 1.019002e+05 1.019002e+05 1.019002e+05 1.019027e+05 1.019220e+05 1.019220e+05 1.019220e+05 1.018895e+05 1.018895e+05 1.018895e+05 1.019166e+05 1.018919e+05 1.018919e+05 1.018919e+05 1.018666e+05 1.018612e+05 1.018612e+05 1.018612e+05 1.018507e+05 1.018482e+05 1.018482e+05 1.018482e+05 1.018492e+05 1.018390e+05 1.018737e+05 1.018737e+05 1.018737e+05 1.018661e+05 1.017767e+05 1.017767e+05 1.017767e+05 1.017752e+05 1.017752e+05 1.017752e+05 1.017799e+05 1.017652e+05 1.018418e+05 1.018418e+05 1.018418e+05 1.018256e+05 1.017234e+05 1.017234e+05 1.017234e+05 1.017254e+05 1.017254e+05 1.017157e+05 1.017157e+05 1.017157e+05 1.017329e+05 1.017347e+05 1.017842e+05 1.017842e+05 1.017842e+05 1.018034e+05 1.017945e+05 1.017247e+05 1.017247e+05 1.017247e+05 1.017348e+05 1.018287e+05 1.018287e+05 1.018287e+05 1.017004e+05 1.017004e+05 1.017185e+05 1.017185e+05 1.017534e+05 1.017534e+05 1.017534e+05 1.017543e+05 1.018119e+05 1.018119e+05 1.018119e+05 1.018132e+05 1.018365e+05 1.018365e+05 1.018399e+05 1.018399e+05 1.017808e+05 1.017808e+05 1.017808e+05 1.017723e+05 1.017723e+05 1.018449e+05 1.018449e+05 1.018449e+05 1.018429e+05 1.018429e+05 1.016975e+05 1.018048e+05 1.018048e+05 1.018048e+05 1.017989e+05 1.017394e+05 1.017394e+05 1.017394e+05 1.017435e+05 1.017435e+05 1.017397e+05 1.017397e+05 1.017397e+05 1.017424e+05 1.017424e+05 1.017791e+05 1.017791e+05 1.017791e+05 1.017685e+05 1.017685e+05 1.017961e+05 1.017961e+05 1.017961e+05 1.017972e+05 1.017972e+05 1.019251e+05 1.019251e+05 1.019251e+05 1.019203e+05 1.017896e+05 1.017896e+05 1.017896e+05 1.017965e+05 1.018429e+05 1.018429e+05 1.018429e+05 1.018488e+05 1.018488e+05 1.018256e+05 1.018256e+05 1.018256e+05 1.018468e+05 1.018468e+05 1.018468e+05 1.018363e+05 1.018363e+05 1.018696e+05 1.018696e+05 1.018696e+05 1.018655e+05 1.018655e+05 1.018729e+05 1.018729e+05 1.018729e+05 1.018687e+05 1.018118e+05 1.018118e+05 1.018653e+05 1.018653e+05 1.018653e+05 1.017516e+05 1.017516e+05 1.017559e+05 1.017559e+05 1.017409e+05 1.017409e+05 1.017409e+05 1.017496e+05 1.018512e+05 1.018512e+05 1.018512e+05 1.018578e+05 1.017362e+05 1.017362e+05 1.018446e+05 1.018446e+05 1.018446e+05 1.017148e+05 1.017148e+05 1.017148e+05 1.017216e+05 1.017216e+05 1.018517e+05 1.018517e+05 1.018517e+05 1.018624e+05 1.018624e+05 1.018394e+05 1.018394e+05 1.018375e+05 1.018346e+05 1.018346e+05 1.018346e+05 1.017032e+05 1.017032e+05 1.017188e+05 1.017975e+05 1.017975e+05 1.017975e+05 1.018489e+05 1.017196e+05 1.017160e+05 1.017872e+05 1.017872e+05 1.017872e+05 1.018253e+05 1.018253e+05 1.018253e+05 1.018478e+05 1.018478e+05 1.018478e+05 1.018131e+05 1.018131e+05 1.018131e+05 1.018140e+05 1.018140e+05 1.018275e+05 1.018275e+05 1.018275e+05 1.018156e+05 1.018156e+05 1.018173e+05 1.018173e+05 1.018337e+05 1.018337e+05 1.018347e+05 1.018347e+05 1.018285e+05 1.018098e+05 1.018098e+05 1.018191e+05 1.018191e+05 1.018866e+05 1.018866e+05 1.019213e+05 1.019106e+05 1.019213e+05 1.019213e+05 1.018606e+05 1.018443e+05 1.018443e+05 1.018110e+05 1.018110e+05 1.018110e+05 1.018067e+05 1.018067e+05 1.018067e+05 1.017505e+05 1.017105e+05 1.017105e+05 1.017076e+05 1.017076e+05 1.017238e+05 1.016947e+05 1.017170e+05 1.018385e+05 1.018535e+05 1.018535e+05 1.017641e+05 1.017641e+05 1.017656e+05 1.017276e+05 1.017496e+05 1.017496e+05 1.018578e+05 1.018578e+05 1.018578e+05 1.018616e+05 1.018541e+05 1.016996e+05 1.017092e+05 1.017092e+05 1.017471e+05 1.017483e+05 1.017483e+05 1.016975e+05 1.017085e+05 1.017085e+05 1.017472e+05 1.017084e+05 1.017084e+05 1.017084e+05 1.018176e+05 1.017540e+05 1.017540e+05 1.017558e+05 1.017058e+05 1.017058e+05 1.017058e+05 1.016973e+05 1.016973e+05 1.017027e+05 1.017051e+05 1.017051e+05 1.017484e+05 1.017014e+05 1.017100e+05 1.018639e+05 1.018639e+05 1.018673e+05 1.018356e+05 1.018386e+05 1.018386e+05 1.018299e+05 1.018229e+05 1.018124e+05 1.018124e+05 1.018097e+05 1.016977e+05 1.017202e+05 1.018520e+05 1.017129e+05 1.018560e+05 1.017105e+05 1.017105e+05 1.018047e+05 1.017979e+05 1.018510e+05 1.017788e+05 1.017788e+05 1.017788e+05 1.017751e+05 1.017751e+05 1.017137e+05 1.017137e+05 1.017323e+05 1.017038e+05 1.017122e+05 1.018501e+05 1.018259e+05 1.018259e+05 1.017117e+05 1.017257e+05 1.017554e+05 1.017915e+05 1.017174e+05 1.017591e+05 1.017378e+05 1.017587e+05 1.017654e+05 1.017654e+05 1.017278e+05 1.018407e+05 1.017831e+05 1.017844e+05 1.018505e+05 1.017265e+05 1.017265e+05 1.017188e+05 1.017641e+05 1.017644e+05 1.017644e+05 1.018337e+05 1.017193e+05 1.017193e+05 1.017193e+05 1.017187e+05 1.018467e+05 1.018625e+05 1.017228e+05 1.017228e+05 1.017228e+05 1.017115e+05 1.018159e+05 1.017955e+05 1.018164e+05 1.018164e+05 1.017325e+05 1.017411e+05 1.017453e+05 1.017562e+05 1.018070e+05 1.017181e+05 1.018115e+05 1.018058e+05 1.018058e+05 1.018052e+05 1.018052e+05 1.018233e+05 1.018233e+05 1.017390e+05 1.017390e+05 1.018213e+05 1.017859e+05 1.017290e+05 1.017290e+05 1.017287e+05 1.017287e+05 1.017057e+05 1.017961e+05 1.017143e+05 1.017125e+05 1.017722e+05 1.017752e+05 1.018466e+05 1.018466e+05 1.018548e+05 1.018547e+05 1.017043e+05 1.018569e+05 1.018569e+05 1.017785e+05 1.017749e+05 1.018551e+05 1.018490e+05 1.018519e+05 1.017733e+05 1.018238e+05 1.017226e+05 1.017226e+05 1.017538e+05 1.017307e+05 1.018279e+05 1.017905e+05 1.017300e+05 1.019009e+05 1.019009e+05 1.019009e+05 1.019037e+05 1.019037e+05 1.017509e+05 1.017595e+05 1.017363e+05 1.017297e+05 1.017991e+05 1.018482e+05 1.017181e+05 1.017914e+05 1.018576e+05 1.017480e+05 1.018106e+05 1.018537e+05 1.018537e+05 1.018537e+05 1.017608e+05 1.017729e+05 1.017321e+05 1.017416e+05 1.018614e+05 1.018614e+05 1.018002e+05 1.018205e+05 1.018205e+05 1.018222e+05 1.018222e+05 1.017515e+05 1.018416e+05 1.018331e+05 1.018331e+05 1.017448e+05 1.017448e+05 1.017327e+05 1.017601e+05 1.017601e+05 1.017492e+05 1.018441e+05 1.018441e+05 1.018555e+05 1.018555e+05 1.018555e+05 1.018576e+05 1.017505e+05 1.017450e+05 1.017947e+05 1.017947e+05 1.017857e+05 1.017435e+05 1.017503e+05 1.017572e+05 1.018106e+05 1.018539e+05 1.017311e+05 1.017384e+05 1.017849e+05 1.017849e+05 1.017479e+05 1.017479e+05 1.017920e+05 1.018349e+05 1.018215e+05 1.018215e+05 1.017673e+05 1.017631e+05 1.017435e+05 1.017607e+05 1.018006e+05 1.018006e+05 1.017590e+05 1.018299e+05 1.018299e+05 1.018510e+05 1.018490e+05 1.018490e+05 1.017648e+05 1.017648e+05 1.017710e+05 1.017788e+05 1.017788e+05 1.017788e+05 1.017683e+05 1.018672e+05 1.017715e+05 1.017572e+05 1.017924e+05 1.017924e+05 1.018064e+05 1.018064e+05 1.018169e+05 1.017546e+05 1.018668e+05 1.018641e+05 1.018641e+05 1.017911e+05 1.018708e+05 1.018708e+05 1.018490e+05 1.018430e+05 1.017824e+05 1.018279e+05 1.018279e+05 1.018279e+05 1.017745e+05 1.017747e+05 1.018098e+05 1.018205e+05 1.018205e+05 1.018298e+05 1.018298e+05 1.018298e+05 1.018219e+05 1.018676e+05 1.017946e+05 1.017946e+05 1.017923e+05 1.018509e+05 1.018419e+05 1.018419e+05 1.018419e+05 1.018120e+05 1.018220e+05 1.018148e+05 1.017898e+05 1.017864e+05 1.018000e+05 1.017857e+05 1.018013e+05 1.017836e+05 1.017849e+05 1.017849e+05 1.018623e+05 1.018623e+05 1.018431e+05 1.018539e+05 1.018108e+05 1.018108e+05 1.018108e+05 1.018443e+05 1.018011e+05 1.018149e+05 1.018099e+05 1.018277e+05 1.018190e+05 1.017688e+05 1.018501e+05 1.018505e+05 1.018596e+05 1.018564e+05 1.018564e+05 1.018182e+05 1.018182e+05 1.018182e+05 1.018455e+05 1.018245e+05 1.018436e+05 1.018184e+05 1.018092e+05 1.018407e+05 1.018248e+05 1.018411e+05 1.018415e+05 1.018457e+05 1.018457e+05 1.018457e+05 1.018563e+05 1.018492e+05 1.018449e+05 1.018449e+05 1.018659e+05 1.018659e+05 1.018465e+05 1.018486e+05 1.018487e+05 1.018607e+05 1.018707e+05 1.018830e+05 1.018792e+05 1.018792e+05 1.018636e+05 1.018886e+05 1.018886e+05 1.018788e+05 1.018788e+05 1.019090e+05 1.019090e+05 1.018876e+05 1.018931e+05 1.018931e+05 1.018641e+05 1.019064e+05 1.019308e+05 1.019092e+05 1.019018e+05 1.019018e+05 1.019018e+05 1.018847e+05 1.018847e+05 1.018847e+05 1.018827e+05 1.018827e+05 1.018948e+05 1.018948e+05 1.018948e+05 1.018989e+05 1.018804e+05 1.018804e+05 1.018805e+05 1.018805e+05 1.018510e+05 1.018510e+05 1.018510e+05 1.018936e+05 1.018936e+05 1.018936e+05 1.019035e+05 1.018855e+05 1.018855e+05 1.018855e+05 1.018997e+05 1.019233e+05 1.019233e+05 1.019108e+05 1.019108e+05 1.019108e+05 1.019061e+05 1.019061e+05 1.019061e+05 1.018988e+05 1.018988e+05 1.018988e+05 1.018907e+05 1.018907e+05 1.018907e+05 1.018871e+05 1.019181e+05 1.019181e+05 1.019181e+05 1.019125e+05 1.019125e+05 1.019125e+05 1.019119e+05 1.019119e+05 1.019119e+05 1.018938e+05 1.018938e+05 1.018938e+05 1.018895e+05 1.018895e+05 1.019048e+05 1.019048e+05 1.018973e+05 1.019013e+05 1.019049e+05 1.019049e+05 1.019049e+05 1.018960e+05 1.018960e+05 1.018833e+05 1.018833e+05 1.018833e+05 1.018914e+05 1.018914e+05 1.018914e+05 1.019012e+05 1.019012e+05 1.019012e+05 1.018913e+05 1.018993e+05 1.018993e+05 1.018993e+05 1.019006e+05 1.018890e+05 1.018890e+05 1.018890e+05 1.019112e+05 1.019112e+05 1.019112e+05 1.019045e+05 1.019081e+05 1.019165e+05 1.019165e+05 1.019165e+05 1.019004e+05 1.019004e+05 1.019060e+05 1.019060e+05 1.019085e+05 1.019100e+05 1.019100e+05 1.019192e+05 1.019192e+05 1.019192e+05 1.019168e+05 1.019168e+05 1.019103e+05 1.019103e+05 1.019103e+05 1.018881e+05 1.019057e+05 1.019057e+05 1.019057e+05 1.018978e+05 1.018952e+05 1.019286e+05 1.019286e+05 1.019032e+05 1.019032e+05 1.018960e+05 1.018960e+05 1.018960e+05 1.018958e+05 1.019001e+05 1.018914e+05 1.018914e+05 1.019079e+05 1.018785e+05 1.019007e+05 1.019007e+05 1.019007e+05 1.019137e+05 1.018960e+05 1.018960e+05 1.019049e+05 1.019144e+05 1.019144e+05 1.019171e+05 1.019230e+05 1.019230e+05 1.019186e+05 1.019186e+05 1.019186e+05 1.018743e+05 1.018743e+05 1.018743e+05 1.018908e+05 1.018870e+05 1.019211e+05 1.018759e+05 1.018759e+05 1.018759e+05 1.018744e+05 1.019006e+05 1.019006e+05 1.019216e+05 1.019216e+05 1.019102e+05 1.018921e+05 1.018921e+05 1.018956e+05 1.018956e+05 1.019081e+05 1.019081e+05 1.019081e+05 1.019240e+05 1.019240e+05 1.019196e+05 1.019196e+05 1.019038e+05 1.019113e+05 1.019113e+05 1.019113e+05 1.019082e+05 1.019082e+05 1.019191e+05 1.019191e+05 1.018865e+05 1.018865e+05 1.019208e+05 1.019208e+05 1.019135e+05 1.019179e+05 1.019179e+05 1.019187e+05 1.019187e+05 1.018869e+05 1.018869e+05 1.018869e+05 1.019130e+05 1.019130e+05 1.019130e+05 1.018883e+05 1.019012e+05 1.019041e+05 1.019052e+05 1.019052e+05 1.019114e+05 1.018833e+05 1.019185e+05 1.019185e+05 1.019217e+05 1.019217e+05 1.019217e+05 1.018864e+05 1.018822e+05 1.018822e+05 1.019180e+05 1.019180e+05 1.019117e+05 1.019167e+05 1.019112e+05 1.019112e+05 1.019178e+05 1.019178e+05 1.019178e+05 1.019177e+05 1.019177e+05 1.019194e+05 1.019211e+05 1.019008e+05 1.019008e+05 1.019133e+05 1.018983e+05 1.018983e+05 1.019139e+05 1.019149e+05 1.019149e+05 1.019110e+05 1.019189e+05 1.019189e+05 1.019041e+05 1.019041e+05 1.019207e+05 1.019063e+05 1.019063e+05 1.019065e+05 1.019065e+05 1.019152e+05 1.019203e+05 1.018993e+05 1.018993e+05 1.019168e+05 1.019218e+05 1.018724e+05 1.018724e+05 1.018982e+05 1.018966e+05 1.019098e+05 1.019098e+05 1.019098e+05 1.019141e+05 1.019141e+05 1.019141e+05 1.018986e+05 1.018986e+05 1.019131e+05 1.019131e+05 1.019131e+05 1.018990e+05 1.019097e+05 1.019087e+05 1.019097e+05 1.019170e+05 1.019170e+05 1.019170e+05 1.019012e+05 1.019108e+05 1.019108e+05 1.019083e+05 1.019083e+05 1.019083e+05 1.019132e+05 1.018987e+05 1.018980e+05 1.018980e+05 1.019057e+05 1.019057e+05 1.019057e+05 1.019213e+05 1.019086e+05 1.018781e+05 1.018781e+05 1.018781e+05 1.018821e+05 1.018821e+05 1.018864e+05 1.019115e+05 1.019034e+05 1.019078e+05 1.019180e+05 1.019180e+05 1.019042e+05 1.018984e+05 1.018984e+05 1.019086e+05 1.019086e+05 1.019086e+05 1.019061e+05 1.018937e+05 1.018872e+05 1.018965e+05 1.019057e+05 1.019000e+05 1.018860e+05 1.019027e+05 1.019027e+05 1.019055e+05 1.019111e+05 1.019111e+05 1.018952e+05 1.019059e+05 1.019059e+05 1.019059e+05 1.018991e+05 1.018991e+05 1.018795e+05 1.018795e+05 1.018875e+05 1.019045e+05 1.019045e+05 1.019013e+05 1.018784e+05 1.018849e+05 1.018983e+05 1.019008e+05 1.018919e+05 1.018909e+05 1.019008e+05 1.019081e+05 1.018665e+05 1.018665e+05 1.018985e+05 1.018985e+05 1.018818e+05 1.018818e+05 1.018995e+05 1.018919e+05 1.018713e+05 1.018724e+05 1.018554e+05 1.019001e+05 1.019001e+05 1.018899e+05 1.018895e+05 1.018796e+05 1.019031e+05 1.019031e+05 1.018604e+05 1.018665e+05 1.018580e+05 1.018658e+05 1.018658e+05 1.018658e+05 1.018804e+05 1.018804e+05 1.018804e+05 1.018605e+05 1.018820e+05 1.018820e+05 1.018720e+05 1.018720e+05 1.018728e+05 1.018748e+05 1.018651e+05 1.019141e+05 1.019234e+05 1.019306e+05 1.019356e+05 1.019094e+05 1.019094e+05 1.019206e+05 1.018797e+05 1.018717e+05 1.018811e+05 1.018837e+05 1.018837e+05 1.018962e+05 1.019023e+05 1.019140e+05 1.019184e+05 1.019184e+05 1.019194e+05 1.019011e+05 1.019116e+05 1.019114e+05 1.019114e+05 1.019114e+05 1.019104e+05 1.019218e+05 1.019225e+05 1.019225e+05 1.018859e+05 1.019202e+05 1.019202e+05 1.019104e+05 1.018746e+05 1.019245e+05 1.019245e+05 1.019157e+05 1.019157e+05 1.019157e+05 1.019165e+05 1.019165e+05 1.019153e+05 1.019203e+05 1.019216e+05 1.019206e+05 1.019228e+05 1.019206e+05 1.018959e+05 1.019092e+05 1.019105e+05 1.019215e+05 1.019165e+05 1.019211e+05 1.019192e+05 1.019229e+05 1.019229e+05 1.019211e+05 1.019229e+05 1.019224e+05 1.019209e+05 1.019223e+05 1.019152e+05 1.019179e+05 1.019179e+05 1.019202e+05 1.019223e+05 1.019180e+05 1.019201e+05 1.019201e+05 1.019204e+05 1.019174e+05 1.019232e+05 1.019173e+05 1.019191e+05 1.019212e+05 1.019180e+05 1.019199e+05 1.019159e+05 1.019159e+05 1.019159e+05 1.019174e+05 1.019185e+05 1.019185e+05 1.019200e+05 1.019200e+05 1.019203e+05 1.019150e+05 1.019150e+05 1.019149e+05 1.019214e+05 1.019171e+05 1.019176e+05 1.019141e+05 1.019156e+05 1.019133e+05 1.019133e+05 1.019145e+05 1.019215e+05 1.019126e+05 1.019126e+05 1.019132e+05 1.019132e+05 1.019085e+05 1.019152e+05 1.019129e+05 1.019102e+05 1.019102e+05 1.018358e+05 1.018358e+05 1.018367e+05 1.018372e+05 1.018411e+05 1.018396e+05 1.018410e+05 1.018369e+05 1.018692e+05 1.018692e+05 1.018692e+05 1.018712e+05 1.018657e+05 1.018657e+05 1.018657e+05 1.018692e+05 1.018473e+05 1.018473e+05 1.018381e+05 1.018381e+05 1.018449e+05 1.018469e+05 1.018469e+05 1.018469e+05 1.018467e+05 1.018546e+05 1.018546e+05 1.018546e+05 1.018506e+05 1.018589e+05 1.018574e+05 1.018350e+05 1.018350e+05 1.018416e+05 1.018374e+05 1.018374e+05 1.018374e+05 1.018423e+05 1.018423e+05 1.018423e+05 1.018412e+05 1.018412e+05 1.018382e+05 1.018507e+05 1.018508e+05 1.018377e+05 1.018377e+05 1.018376e+05 1.018471e+05 1.018512e+05 1.018512e+05 1.018512e+05 1.018486e+05 1.018486e+05 1.018382e+05 1.018424e+05 1.018453e+05 1.018380e+05 1.018525e+05 1.018525e+05 1.018472e+05 1.018501e+05 1.018528e+05 1.018586e+05 1.018676e+05 1.018670e+05 1.018670e+05 1.018742e+05 1.018753e+05 1.018703e+05 1.018703e+05 1.018703e+05 1.018712e+05 1.018712e+05 1.018822e+05 1.018803e+05 1.018803e+05 1.019043e+05 1.019020e+05 1.019020e+05 1.019020e+05 1.019081e+05 1.019081e+05 1.019107e+05 1.019107e+05 1.019107e+05 1.018784e+05 1.018784e+05 1.019008e+05 1.019164e+05 1.019164e+05 1.019164e+05 1.018925e+05 1.018925e+05 1.018925e+05 1.018953e+05 1.018940e+05 1.019248e+05 1.019248e+05 1.019248e+05 1.018941e+05 1.018941e+05 1.018941e+05 1.018851e+05 1.018851e+05 1.018851e+05 1.018837e+05 1.018837e+05 1.018913e+05 1.018913e+05 1.018913e+05 1.019103e+05 1.019103e+05 1.018892e+05 1.018892e+05 1.018892e+05 1.018902e+05 1.018902e+05 1.018960e+05 1.018960e+05 1.018960e+05 1.019237e+05 1.019237e+05 1.019237e+05 1.018862e+05 1.018862e+05 1.018862e+05 1.018820e+05 1.018820e+05 1.019129e+05 1.019129e+05 1.019129e+05 1.019139e+05 1.019139e+05 1.019039e+05 1.019025e+05 1.019025e+05 1.019025e+05 1.019076e+05 1.018979e+05 1.018979e+05 1.018979e+05 1.018963e+05 1.019129e+05 1.019129e+05 1.019129e+05 1.018908e+05 1.018892e+05 1.018993e+05 1.018993e+05 1.018993e+05 1.019043e+05 1.019192e+05 1.019192e+05 1.019192e+05 1.018848e+05 1.018848e+05 1.018848e+05 1.018925e+05 1.018925e+05 1.019001e+05 1.019001e+05 1.019001e+05 1.018994e+05 1.018954e+05 1.018954e+05 1.018996e+05 1.018996e+05 1.018905e+05 1.018949e+05 1.018953e+05 1.019140e+05 1.018504e+05 1.018933e+05 1.018753e+05 1.018782e+05 1.018782e+05 1.019177e+05 1.019177e+05 1.019177e+05 1.019023e+05 1.019023e+05 1.019123e+05 1.019123e+05 1.019123e+05 1.018813e+05 1.018813e+05 1.018813e+05 1.019207e+05 1.019207e+05 1.019074e+05 1.019074e+05 1.019166e+05 1.019166e+05 1.019166e+05 1.019073e+05 1.019073e+05 1.019073e+05 1.019047e+05 1.019047e+05 1.019047e+05 1.018809e+05 1.019213e+05 1.019213e+05 1.019100e+05 1.019100e+05 1.019138e+05 1.019138e+05 1.018942e+05 1.018942e+05 1.018955e+05 1.018850e+05 1.018850e+05 1.018850e+05 1.018870e+05 1.018613e+05 1.018640e+05 1.018884e+05 1.019209e+05 1.019209e+05 1.019209e+05 1.018993e+05 1.018993e+05 1.018767e+05 1.018767e+05 1.018776e+05 1.018776e+05 1.018816e+05 1.018816e+05 1.019041e+05 1.019041e+05 1.019038e+05 1.018884e+05 1.018884e+05 1.019217e+05 1.019217e+05 1.019217e+05 1.019010e+05 1.019039e+05 1.018946e+05 1.019201e+05 1.019201e+05 1.019201e+05 1.019162e+05 1.019162e+05 1.019162e+05 1.019091e+05 1.019208e+05 1.019208e+05 1.019208e+05 1.019212e+05 1.019212e+05 1.019212e+05 1.019070e+05 1.019070e+05 1.018803e+05 1.018838e+05 1.019162e+05 1.019162e+05 1.019095e+05 1.019095e+05 1.019130e+05 1.019095e+05 1.018936e+05 1.019070e+05 1.019052e+05 1.019052e+05 1.019034e+05 1.019162e+05 1.019231e+05 1.019231e+05 1.018871e+05 1.018916e+05 1.019190e+05 1.019190e+05 1.019210e+05 1.019105e+05 1.019105e+05 1.019067e+05 1.019193e+05 1.019193e+05 1.019193e+05 1.019091e+05 1.019112e+05 1.019165e+05 1.019165e+05 1.019165e+05 1.019225e+05 1.019225e+05 1.018859e+05 1.019069e+05 1.019000e+05 1.019000e+05 1.018980e+05 1.019255e+05 1.019039e+05 1.019039e+05 1.019039e+05 1.019029e+05 1.019078e+05 1.019239e+05 1.019239e+05 1.019239e+05 1.019215e+05 1.019229e+05 1.019229e+05 1.019211e+05 1.019211e+05 1.019128e+05 1.019019e+05 1.018955e+05 1.018960e+05 1.019115e+05 1.019115e+05 1.019115e+05 1.019196e+05 1.019196e+05 1.019193e+05 1.019193e+05 1.019193e+05 1.019037e+05 1.019236e+05 1.019237e+05 1.019237e+05 1.019130e+05 1.019130e+05 1.019080e+05 1.019083e+05 1.019175e+05 1.019175e+05 1.019175e+05 1.019196e+05 1.019196e+05 1.019230e+05 1.019230e+05 1.019230e+05 1.019201e+05 1.019201e+05 1.019136e+05 1.019201e+05 1.019201e+05 1.019183e+05 1.019183e+05 1.019203e+05 1.019203e+05 1.019164e+05 1.019103e+05 1.019103e+05 1.019201e+05 1.019201e+05 1.019020e+05 1.019239e+05 1.019198e+05 1.019198e+05 1.019181e+05 1.019190e+05 1.019190e+05 1.019129e+05 1.019129e+05 1.019129e+05 1.019162e+05 1.019175e+05 1.019175e+05 1.019175e+05 1.019238e+05 1.019182e+05 1.018842e+05 1.018842e+05 1.018842e+05 1.019053e+05 1.019188e+05 1.019175e+05 1.019148e+05 1.019126e+05 1.019154e+05 1.018859e+05 1.019257e+05 1.019257e+05 1.019186e+05 1.019121e+05 1.019121e+05 1.019121e+05 1.019192e+05 1.019166e+05 1.019069e+05 1.019196e+05 1.019167e+05 1.019227e+05 1.019075e+05 1.019170e+05 1.019170e+05 1.019129e+05 1.019014e+05 1.019103e+05 1.019120e+05 1.019098e+05 1.019098e+05 1.019099e+05 1.019195e+05 1.019103e+05 1.019142e+05 1.019142e+05 1.019142e+05 1.019141e+05 1.018936e+05 1.019093e+05 1.019069e+05 1.019131e+05 1.019131e+05 1.019131e+05 1.019101e+05 1.019101e+05 1.019069e+05 1.019040e+05 1.019040e+05 1.019080e+05 1.019076e+05 1.019076e+05 1.019039e+05 1.019086e+05 1.019037e+05 1.019037e+05 1.019037e+05 1.019061e+05 1.019089e+05 1.019089e+05 1.019092e+05 1.019043e+05 1.019043e+05 1.019078e+05 1.019079e+05 1.019014e+05 1.019002e+05 1.019002e+05 1.019061e+05 1.019036e+05 1.019052e+05 1.019052e+05 1.019039e+05 1.019078e+05 1.019078e+05 1.019049e+05 1.019116e+05 1.018886e+05 1.018833e+05 1.018653e+05 1.018653e+05 1.019070e+05 1.018989e+05 1.018989e+05 1.018888e+05 1.018859e+05 1.018783e+05 1.018783e+05 1.018817e+05 1.018831e+05 1.018597e+05 1.018657e+05 1.018801e+05 1.018814e+05 1.019099e+05 1.019113e+05 1.018932e+05 1.018692e+05 1.018636e+05 1.018785e+05 1.019185e+05 1.019077e+05 1.019202e+05 1.019105e+05 1.019031e+05 1.019157e+05 1.019024e+05 1.019167e+05 1.019161e+05 1.019161e+05 1.019161e+05 1.019239e+05 1.019165e+05 1.019165e+05 1.019177e+05 1.019043e+05 1.019003e+05 1.019077e+05 1.019195e+05 1.019110e+05 1.019184e+05 1.019224e+05 1.019226e+05 1.019226e+05 1.019231e+05 1.019251e+05 1.019202e+05 1.019212e+05 1.019212e+05 1.019202e+05 1.019209e+05 1.019200e+05 1.019216e+05 1.019222e+05 1.019218e+05 1.019230e+05 1.019235e+05 1.019243e+05 1.019243e+05 1.019253e+05 1.019234e+05 1.019226e+05 1.019163e+05 1.019178e+05 1.019178e+05 1.019225e+05 1.019233e+05 1.019215e+05 1.019215e+05 1.019232e+05 1.019167e+05 1.019167e+05 1.019181e+05 1.019181e+05 1.019221e+05 1.019217e+05 1.019236e+05 1.019236e+05 1.019154e+05 1.019154e+05 1.019154e+05 1.019251e+05 1.019224e+05 1.019238e+05 1.019160e+05 1.019216e+05 1.019243e+05 1.019205e+05 1.019201e+05 1.019228e+05 1.019211e+05 1.019211e+05 1.019215e+05 1.019167e+05 1.019167e+05 1.019229e+05 1.019229e+05 1.019230e+05 1.019141e+05 1.019204e+05 1.019179e+05 1.019183e+05 1.019145e+05 1.019152e+05 1.019182e+05 1.019208e+05 1.019177e+05 1.019153e+05 1.016849e+05 1.016876e+05 1.016930e+05 1.016968e+05 1.016996e+05 1.016977e+05 1.016969e+05 1.017014e+05 1.017003e+05 1.017014e+05 1.017013e+05 1.016956e+05 1.016960e+05 1.016961e+05 1.016932e+05 1.016956e+05 1.016974e+05 1.016954e+05 1.016952e+05 1.016992e+05 1.017019e+05 1.016965e+05 1.017022e+05 1.017072e+05 1.017054e+05 1.017057e+05 1.017066e+05 1.017137e+05 1.017188e+05 1.017255e+05 1.017276e+05 1.017343e+05 1.017378e+05 1.017397e+05 1.017471e+05 1.017495e+05 1.017455e+05 1.017518e+05 1.017548e+05 1.017618e+05 1.017637e+05 1.017695e+05 1.017733e+05 1.017737e+05 1.017794e+05 1.017803e+05 1.017880e+05 1.017900e+05 1.017861e+05 1.017928e+05 1.017940e+05 1.018011e+05 1.018045e+05 1.018035e+05 1.018081e+05 1.018073e+05 1.018229e+05 1.018208e+05 1.018280e+05 1.018310e+05 1.018361e+05 1.018385e+05 1.018392e+05 1.018443e+05 1.018438e+05 1.018519e+05 1.018563e+05 1.018542e+05 1.018512e+05 1.018493e+05 1.018442e+05 1.018429e+05 1.018391e+05 1.018377e+05 1.018368e+05 1.018369e+05 1.018377e+05 1.018469e+05 1.018471e+05 1.018512e+05 1.018509e+05 1.018509e+05 1.018653e+05 1.018703e+05 1.018817e+05 1.018833e+05 1.018833e+05 1.018783e+05 1.018821e+05 1.018786e+05 1.018784e+05 1.018863e+05 1.018871e+05 1.018881e+05 1.018886e+05 1.018905e+05 1.018917e+05 1.018930e+05 1.018954e+05 1.018986e+05 1.019003e+05 1.019012e+05 1.019012e+05 1.019039e+05 1.019049e+05 1.019074e+05 1.019070e+05 1.019100e+05 1.019110e+05 1.019100e+05 1.019123e+05 1.019116e+05 1.019151e+05 1.019138e+05 1.019199e+05 1.019168e+05 1.019165e+05 1.019184e+05 1.019202e+05 1.019201e+05 1.019199e+05 1.019199e+05 1.019195e+05 1.019207e+05 1.019268e+05 1.019209e+05 1.019222e+05 1.019224e+05 1.019224e+05 1.019221e+05 1.019226e+05 1.019253e+05 1.019253e+05 1.019213e+05 1.019231e+05 1.019231e+05 1.019234e+05 1.019226e+05 1.019243e+05 1.019251e+05 1.019251e+05 1.019200e+05 1.019200e+05 1.019218e+05 1.019225e+05 1.019217e+05 1.019215e+05 1.019238e+05 1.019163e+05 1.019163e+05 1.019178e+05 1.019171e+05 1.019168e+05 1.019154e+05 1.019154e+05 1.019002e+05 1.019002e+05 1.019002e+05 1.019027e+05 1.019220e+05 1.019220e+05 1.019220e+05 1.018895e+05 1.018895e+05 1.018895e+05 1.019166e+05 1.018919e+05 1.018919e+05 1.018919e+05 1.018666e+05 1.018612e+05 1.018612e+05 1.018612e+05 1.018507e+05 1.018482e+05 1.018482e+05 1.018482e+05 1.018492e+05 1.018390e+05 1.018737e+05 1.018737e+05 1.018737e+05 1.018661e+05 1.017767e+05 1.017767e+05 1.017767e+05 1.017752e+05 1.017752e+05 1.017752e+05 1.017799e+05 1.017652e+05 1.018418e+05 1.018418e+05 1.018418e+05 1.018256e+05 1.017234e+05 1.017234e+05 1.017234e+05 1.017254e+05 1.017254e+05 1.017157e+05 1.017157e+05 1.017157e+05 1.017329e+05 1.017347e+05 1.017842e+05 1.017842e+05 1.017842e+05 1.018034e+05 1.017945e+05 1.017247e+05 1.017247e+05 1.017247e+05 1.017348e+05 1.018287e+05 1.018287e+05 1.018287e+05 1.017004e+05 1.017004e+05 1.017185e+05 1.017185e+05 1.017534e+05 1.017534e+05 1.017534e+05 1.017543e+05 1.018119e+05 1.018119e+05 1.018119e+05 1.018132e+05 1.018365e+05 1.018365e+05 1.018399e+05 1.018399e+05 1.017808e+05 1.017808e+05 1.017808e+05 1.017723e+05 1.017723e+05 1.018449e+05 1.018449e+05 1.018449e+05 1.018429e+05 1.018429e+05 1.016975e+05 1.018048e+05 1.018048e+05 1.018048e+05 1.017989e+05 1.017394e+05 1.017394e+05 1.017394e+05 1.017435e+05 1.017435e+05 1.017397e+05 1.017397e+05 1.017397e+05 1.017424e+05 1.017424e+05 1.017791e+05 1.017791e+05 1.017791e+05 1.017685e+05 1.017685e+05 1.017961e+05 1.017961e+05 1.017961e+05 1.017972e+05 1.017972e+05 1.019251e+05 1.019251e+05 1.019251e+05 1.019203e+05 1.017896e+05 1.017896e+05 1.017896e+05 1.017965e+05 1.018429e+05 1.018429e+05 1.018429e+05 1.018488e+05 1.018488e+05 1.018256e+05 1.018256e+05 1.018256e+05 1.018468e+05 1.018468e+05 1.018468e+05 1.018363e+05 1.018363e+05 1.018696e+05 1.018696e+05 1.018696e+05 1.018655e+05 1.018655e+05 1.018729e+05 1.018729e+05 1.018729e+05 1.018687e+05 1.018118e+05 1.018118e+05 1.018653e+05 1.018653e+05 1.018653e+05 1.017516e+05 1.017516e+05 1.017559e+05 1.017559e+05 1.017409e+05 1.017409e+05 1.017409e+05 1.017496e+05 1.018512e+05 1.018512e+05 1.018512e+05 1.018578e+05 1.017362e+05 1.017362e+05 1.018446e+05 1.018446e+05 1.018446e+05 1.017148e+05 1.017148e+05 1.017148e+05 1.017216e+05 1.017216e+05 1.018517e+05 1.018517e+05 1.018517e+05 1.018624e+05 1.018624e+05 1.018394e+05 1.018394e+05 1.018375e+05 1.018346e+05 1.018346e+05 1.018346e+05 1.017032e+05 1.017032e+05 1.017188e+05 1.017975e+05 1.017975e+05 1.017975e+05 1.018489e+05 1.017196e+05 1.017160e+05 1.017872e+05 1.017872e+05 1.017872e+05 1.018253e+05 1.018253e+05 1.018253e+05 1.018478e+05 1.018478e+05 1.018478e+05 1.018131e+05 1.018131e+05 1.018131e+05 1.018140e+05 1.018140e+05 1.018275e+05 1.018275e+05 1.018275e+05 1.018156e+05 1.018156e+05 1.018173e+05 1.018173e+05 1.018337e+05 1.018337e+05 1.018347e+05 1.018347e+05 1.018285e+05 1.018098e+05 1.018098e+05 1.018191e+05 1.018191e+05 1.018866e+05 1.018866e+05 1.019213e+05 1.019106e+05 1.019213e+05 1.019213e+05 1.018606e+05 1.018443e+05 1.018443e+05 1.018110e+05 1.018110e+05 1.018110e+05 1.018067e+05 1.018067e+05 1.018067e+05 1.017505e+05 1.017105e+05 1.017105e+05 1.017076e+05 1.017076e+05 1.017238e+05 1.016947e+05 1.017170e+05 1.018385e+05 1.018535e+05 1.018535e+05 1.017641e+05 1.017641e+05 1.017656e+05 1.017276e+05 1.017496e+05 1.017496e+05 1.018578e+05 1.018578e+05 1.018578e+05 1.018616e+05 1.018541e+05 1.016996e+05 1.017092e+05 1.017092e+05 1.017471e+05 1.017483e+05 1.017483e+05 1.016975e+05 1.017085e+05 1.017085e+05 1.017472e+05 1.017084e+05 1.017084e+05 1.017084e+05 1.018176e+05 1.017540e+05 1.017540e+05 1.017558e+05 1.017058e+05 1.017058e+05 1.017058e+05 1.016973e+05 1.016973e+05 1.017027e+05 1.017051e+05 1.017051e+05 1.017484e+05 1.017014e+05 1.017100e+05 1.018639e+05 1.018639e+05 1.018673e+05 1.018356e+05 1.018386e+05 1.018386e+05 1.018299e+05 1.018229e+05 1.018124e+05 1.018124e+05 1.018097e+05 1.016977e+05 1.017202e+05 1.018520e+05 1.017129e+05 1.018560e+05 1.017105e+05 1.017105e+05 1.018047e+05 1.017979e+05 1.018510e+05 1.017788e+05 1.017788e+05 1.017788e+05 1.017751e+05 1.017751e+05 1.017137e+05 1.017137e+05 1.017323e+05 1.017038e+05 1.017122e+05 1.018501e+05 1.018259e+05 1.018259e+05 1.017117e+05 1.017257e+05 1.017554e+05 1.017915e+05 1.017174e+05 1.017591e+05 1.017378e+05 1.017587e+05 1.017654e+05 1.017654e+05 1.017278e+05 1.018407e+05 1.017831e+05 1.017844e+05 1.018505e+05 1.017265e+05 1.017265e+05 1.017188e+05 1.017641e+05 1.017644e+05 1.017644e+05 1.018337e+05 1.017193e+05 1.017193e+05 1.017193e+05 1.017187e+05 1.018467e+05 1.018625e+05 1.