<?xml version="1.0"?>
 <VTKFile type="UnstructuredGrid" version="1.0" byte_order="LittleEndian" header_type="UInt64">
  <UnstructuredGrid>
    <FieldData>
     <DataArray type="Float64" Name="TimeValue" NumberOfTuples="1" format="ascii">
1e-05
     </DataArray>
    </FieldData>
   <Piece NumberOfPoints="3662" NumberOfCells="3444">
    <PointData>
     <DataArray type="Float64" Name="pointP" format="ascii">
1.023082e+05 1.023107e+05 1.023079e+05 1.023073e+05 1.023092e+05 1.023022e+05 1.023030e+05 1.023010e+05 1.022982e+05 1.022939e+05 1.022889e+05 1.022857e+05 1.022828e+05 1.022780e+05 1.022769e+05 1.022829e+05 1.022760e+05 1.022770e+05 1.022778e+05 1.022770e+05 1.022773e+05 1.022749e+05 1.022854e+05 1.022681e+05 1.022713e+05 1.022623e+05 1.022569e+05 1.022504e+05 1.022451e+05 1.022372e+05 1.022283e+05 1.022266e+05 1.022140e+05 1.022106e+05 1.022025e+05 1.021931e+05 1.021872e+05 1.021788e+05 1.021685e+05 1.021622e+05 1.021607e+05 1.021558e+05 1.021443e+05 1.021344e+05 1.021317e+05 1.021266e+05 1.021229e+05 1.021189e+05 1.021083e+05 1.021017e+05 1.020922e+05 1.020802e+05 1.020691e+05 1.020535e+05 1.020457e+05 1.020317e+05 1.020156e+05 1.020069e+05 1.019966e+05 1.019894e+05 1.019886e+05 1.019770e+05 1.019720e+05 1.019660e+05 1.019679e+05 1.019521e+05 1.019418e+05 1.019362e+05 1.019284e+05 1.019146e+05 1.018982e+05 1.018911e+05 1.018771e+05 1.018671e+05 1.018565e+05 1.018507e+05 1.018401e+05 1.018346e+05 1.018242e+05 1.018172e+05 1.018111e+05 1.018034e+05 1.017933e+05 1.017877e+05 1.017825e+05 1.017767e+05 1.017710e+05 1.017645e+05 1.017589e+05 1.017543e+05 1.017467e+05 1.017430e+05 1.017343e+05 1.017303e+05 1.017268e+05 1.017191e+05 1.017195e+05 1.017150e+05 1.017117e+05 1.017089e+05 1.017091e+05 1.017086e+05 1.017039e+05 1.017029e+05 1.016981e+05 1.017024e+05 1.016993e+05 1.016935e+05 1.016967e+05 1.016921e+05 1.016926e+05 1.016911e+05 1.016864e+05 1.016844e+05 1.016828e+05 1.016766e+05 1.016814e+05 1.016798e+05 1.016780e+05 1.016798e+05 1.016824e+05 1.016847e+05 1.016877e+05 1.016877e+05 1.018776e+05 1.019069e+05 1.019168e+05 1.019185e+05 1.019215e+05 1.019256e+05 1.019285e+05 1.019285e+05 1.019290e+05 1.019305e+05 1.019331e+05 1.019331e+05 1.019387e+05 1.019387e+05 1.019472e+05 1.019515e+05 1.019568e+05 1.019570e+05 1.019658e+05 1.019853e+05 1.019853e+05 1.020050e+05 1.020050e+05 1.020151e+05 1.020187e+05 1.020444e+05 1.020480e+05 1.020498e+05 1.020750e+05 1.020860e+05 1.020861e+05 1.020975e+05 1.021212e+05 1.021317e+05 1.021380e+05 1.021634e+05 1.021748e+05 1.021748e+05 1.021722e+05 1.021993e+05 1.021993e+05 1.022387e+05 1.022171e+05 1.022171e+05 1.022396e+05 1.022619e+05 1.022619e+05 1.022657e+05 1.022724e+05 1.022765e+05 1.022765e+05 1.022931e+05 1.022923e+05 1.022980e+05 1.023088e+05 1.022994e+05 1.018809e+05 1.020011e+05 1.020011e+05 1.020011e+05 1.020147e+05 1.019375e+05 1.019375e+05 1.019375e+05 1.019499e+05 1.019499e+05 1.020184e+05 1.020184e+05 1.020184e+05 1.020236e+05 1.020087e+05 1.018984e+05 1.019649e+05 1.019649e+05 1.019667e+05 1.019984e+05 1.019984e+05 1.019984e+05 1.019964e+05 1.019898e+05 1.019982e+05 1.019982e+05 1.019982e+05 1.019915e+05 1.019116e+05 1.019116e+05 1.019116e+05 1.019122e+05 1.019081e+05 1.019081e+05 1.019923e+05 1.019923e+05 1.019705e+05 1.019534e+05 1.018809e+05 1.018809e+05 1.019227e+05 1.019227e+05 1.019227e+05 1.019188e+05 1.019164e+05 1.019164e+05 1.019164e+05 1.019639e+05 1.019639e+05 1.019639e+05 1.019697e+05 1.019697e+05 1.019731e+05 1.019779e+05 1.019475e+05 1.019475e+05 1.019475e+05 1.019420e+05 1.019269e+05 1.019194e+05 1.018904e+05 1.019194e+05 1.021089e+05 1.021089e+05 1.021089e+05 1.021519e+05 1.021519e+05 1.021519e+05 1.021345e+05 1.017841e+05 1.017777e+05 1.017841e+05 1.017841e+05 1.019748e+05 1.019748e+05 1.019748e+05 1.019720e+05 1.021153e+05 1.021153e+05 1.021153e+05 1.021154e+05 1.021938e+05 1.021938e+05 1.021938e+05 1.021832e+05 1.021832e+05 1.017344e+05 1.017344e+05 1.017344e+05 1.017283e+05 1.017497e+05 1.017497e+05 1.017497e+05 1.017483e+05 1.017483e+05 1.022721e+05 1.022721e+05 1.022721e+05 1.022765e+05 1.018228e+05 1.018228e+05 1.018228e+05 1.018357e+05 1.018357e+05 1.017182e+05 1.017279e+05 1.021671e+05 1.021671e+05 1.021671e+05 1.021655e+05 1.022141e+05 1.022141e+05 1.022141e+05 1.022252e+05 1.022252e+05 1.018377e+05 1.018377e+05 1.018377e+05 1.018410e+05 1.021820e+05 1.021820e+05 1.021820e+05 1.021895e+05 1.016844e+05 1.019741e+05 1.019741e+05 1.019741e+05 1.018676e+05 1.018676e+05 1.018676e+05 1.018612e+05 1.018021e+05 1.018021e+05 1.018021e+05 1.017907e+05 1.017150e+05 1.017168e+05 1.017168e+05 1.017168e+05 1.017131e+05 1.017712e+05 1.017712e+05 1.017712e+05 1.017837e+05 1.017837e+05 1.017279e+05 1.017279e+05 1.017182e+05 1.022160e+05 1.022160e+05 1.022160e+05 1.022150e+05 1.022150e+05 1.018394e+05 1.018487e+05 1.018487e+05 1.021437e+05 1.021437e+05 1.021437e+05 1.021475e+05 1.021475e+05 1.021418e+05 1.021418e+05 1.021418e+05 1.021489e+05 1.018339e+05 1.018216e+05 1.018339e+05 1.018339e+05 1.018719e+05 1.019760e+05 1.019760e+05 1.019760e+05 1.019634e+05 1.019759e+05 1.019877e+05 1.019877e+05 1.019359e+05 1.019359e+05 1.019388e+05 1.019388e+05 1.020179e+05 1.020179e+05 1.020179e+05 1.020293e+05 1.020293e+05 1.019254e+05 1.019254e+05 1.019254e+05 1.019304e+05 1.019365e+05 1.019472e+05 1.019416e+05 1.020740e+05 1.020740e+05 1.020740e+05 1.020681e+05 1.021076e+05 1.021076e+05 1.021076e+05 1.020979e+05 1.019852e+05 1.019852e+05 1.019852e+05 1.021811e+05 1.021811e+05 1.021811e+05 1.018750e+05 1.018750e+05 1.018750e+05 1.022136e+05 1.022136e+05 1.022136e+05 1.017726e+05 1.017726e+05 1.017726e+05 1.018024e+05 1.017754e+05 1.018491e+05 1.018491e+05 1.018491e+05 1.017837e+05 1.017837e+05 1.017967e+05 1.019274e+05 1.019274e+05 1.019274e+05 1.019352e+05 1.018370e+05 1.018370e+05 1.018370e+05 1.018345e+05 1.018174e+05 1.018174e+05 1.022732e+05 1.022732e+05 1.022732e+05 1.022668e+05 1.017454e+05 1.017454e+05 1.017454e+05 1.017531e+05 1.017585e+05 1.017585e+05 1.017585e+05 1.017676e+05 1.022148e+05 1.022148e+05 1.022148e+05 1.019536e+05 1.019536e+05 1.019536e+05 1.019619e+05 1.017895e+05 1.017895e+05 1.017895e+05 1.017942e+05 1.017633e+05 1.017633e+05 1.017633e+05 1.017754e+05 1.018302e+05 1.018302e+05 1.018302e+05 1.018334e+05 1.022934e+05 1.022934e+05 1.022934e+05 1.022541e+05 1.022541e+05 1.022541e+05 1.022555e+05 1.022114e+05 1.022114e+05 1.022114e+05 1.021947e+05 1.021512e+05 1.021512e+05 1.021585e+05 1.018939e+05 1.018939e+05 1.018925e+05 1.016996e+05 1.016996e+05 1.017091e+05 1.017762e+05 1.017762e+05 1.017762e+05 1.017794e+05 1.018274e+05 1.018274e+05 1.018274e+05 1.022462e+05 1.022462e+05 1.022497e+05 1.018497e+05 1.018497e+05 1.018414e+05 1.017808e+05 1.021854e+05 1.021822e+05 1.017141e+05 1.017141e+05 1.017051e+05 1.022766e+05 1.022766e+05 1.022766e+05 1.022754e+05 1.018119e+05 1.018119e+05 1.021301e+05 1.021301e+05 1.021301e+05 1.022932e+05 1.022932e+05 1.022932e+05 1.022881e+05 1.022881e+05 1.022720e+05 1.022720e+05 1.022720e+05 1.022747e+05 1.022349e+05 1.022349e+05 1.022349e+05 1.022361e+05 1.022361e+05 1.017405e+05 1.017405e+05 1.017405e+05 1.017413e+05 1.017413e+05 1.022711e+05 1.022711e+05 1.022825e+05 1.022825e+05 1.022835e+05 1.022835e+05 1.022835e+05 1.021801e+05 1.021801e+05 1.021801e+05 1.021856e+05 1.017374e+05 1.017374e+05 1.017374e+05 1.017256e+05 1.017256e+05 1.017198e+05 1.017198e+05 1.017198e+05 1.017203e+05 1.017203e+05 1.018361e+05 1.018361e+05 1.018361e+05 1.018491e+05 1.018491e+05 1.019935e+05 1.019935e+05 1.019935e+05 1.020076e+05 1.020076e+05 1.020962e+05 1.020962e+05 1.020962e+05 1.021069e+05 1.021978e+05 1.021978e+05 1.022253e+05 1.022253e+05 1.022253e+05 1.022105e+05 1.022105e+05 1.018457e+05 1.018457e+05 1.018457e+05 1.018415e+05 1.018415e+05 1.019139e+05 1.019139e+05 1.019139e+05 1.019048e+05 1.019048e+05 1.019183e+05 1.019183e+05 1.019281e+05 1.019281e+05 1.020047e+05 1.020047e+05 1.020341e+05 1.020341e+05 1.019303e+05 1.019335e+05 1.019335e+05 1.020157e+05 1.020157e+05 1.020157e+05 1.020277e+05 1.020277e+05 1.019942e+05 1.019942e+05 1.019302e+05 1.019302e+05 1.019302e+05 1.019417e+05 1.019723e+05 1.019106e+05 1.019443e+05 1.019465e+05 1.019465e+05 1.019465e+05 1.019444e+05 1.019444e+05 1.018690e+05 1.018690e+05 1.018675e+05 1.018617e+05 1.018712e+05 1.021865e+05 1.021865e+05 1.021865e+05 1.021681e+05 1.022406e+05 1.022406e+05 1.022316e+05 1.017601e+05 1.017601e+05 1.017601e+05 1.016909e+05 1.016909e+05 1.016909e+05 1.016903e+05 1.016983e+05 1.022688e+05 1.022688e+05 1.022688e+05 1.018056e+05 1.017031e+05 1.016847e+05 1.016847e+05 1.021950e+05 1.021950e+05 1.019418e+05 1.019445e+05 1.019445e+05 1.019445e+05 1.019909e+05 1.019909e+05 1.019909e+05 1.019799e+05 1.023079e+05 1.023147e+05 1.023147e+05 1.022914e+05 1.022914e+05 1.022914e+05 1.022806e+05 1.017181e+05 1.017181e+05 1.017207e+05 1.017191e+05 1.022976e+05 1.022976e+05 1.022656e+05 1.022656e+05 1.017396e+05 1.017396e+05 1.017041e+05 1.017041e+05 1.017041e+05 1.022672e+05 1.022672e+05 1.022750e+05 1.016943e+05 1.016943e+05 1.016889e+05 1.022369e+05 1.022708e+05 1.022724e+05 1.022724e+05 1.022732e+05 1.019356e+05 1.019356e+05 1.019356e+05 1.019317e+05 1.020802e+05 1.020834e+05 1.023073e+05 1.023035e+05 1.021453e+05 1.021453e+05 1.021049e+05 1.021049e+05 1.021049e+05 1.020994e+05 1.017302e+05 1.017302e+05 1.017351e+05 1.017351e+05 1.018755e+05 1.022709e+05 1.022709e+05 1.022783e+05 1.019759e+05 1.019759e+05 1.019759e+05 1.016911e+05 1.023010e+05 1.022826e+05 1.020391e+05 1.020391e+05 1.020391e+05 1.020284e+05 1.016974e+05 1.016974e+05 1.017013e+05 1.020213e+05 1.020213e+05 1.020076e+05 1.017092e+05 1.017092e+05 1.017589e+05 1.017589e+05 1.022813e+05 1.021685e+05 1.021718e+05 1.020024e+05 1.022830e+05 1.022830e+05 1.021114e+05 1.017038e+05 1.017047e+05 1.017047e+05 1.017160e+05 1.017160e+05 1.017284e+05 1.017284e+05 1.022791e+05 1.022791e+05 1.019481e+05 1.022762e+05 1.019184e+05 1.019184e+05 1.019274e+05 1.020547e+05 1.020547e+05 1.020547e+05 1.023230e+05 1.023230e+05 1.018081e+05 1.016935e+05 1.016935e+05 1.020796e+05 1.020722e+05 1.021275e+05 1.018605e+05 1.016847e+05 1.016824e+05 1.022744e+05 1.019845e+05 1.017049e+05 1.017049e+05 1.017049e+05 1.017103e+05 1.022608e+05 1.016985e+05 1.017147e+05 1.017147e+05 1.021189e+05 1.020934e+05 1.017177e+05 1.017177e+05 1.022737e+05 1.022737e+05 1.017048e+05 1.017048e+05 1.017361e+05 1.019751e+05 1.019751e+05 1.017306e+05 1.017408e+05 1.017940e+05 1.017861e+05 1.019688e+05 1.019688e+05 1.019555e+05 1.019555e+05 1.017115e+05 1.018029e+05 1.022933e+05 1.016867e+05 1.017887e+05 1.021074e+05 1.022102e+05 1.017052e+05 1.017238e+05 1.017298e+05 1.017371e+05 1.021037e+05 1.020994e+05 1.022957e+05 1.022957e+05 1.019624e+05 1.019680e+05 1.021470e+05 1.017233e+05 1.022224e+05 1.022224e+05 1.021366e+05 1.021366e+05 1.021366e+05 1.017851e+05 1.019498e+05 1.017065e+05 1.022517e+05 1.022554e+05 1.022600e+05 1.022600e+05 1.022600e+05 1.020786e+05 1.020786e+05 1.020786e+05 1.020757e+05 1.022813e+05 1.019457e+05 1.019493e+05 1.017981e+05 1.017981e+05 1.017981e+05 1.021299e+05 1.021299e+05 1.021299e+05 1.021300e+05 1.020182e+05 1.020182e+05 1.020277e+05 1.018835e+05 1.018909e+05 1.017180e+05 1.017275e+05 1.017229e+05 1.017229e+05 1.017186e+05 1.017081e+05 1.017081e+05 1.017150e+05 1.017150e+05 1.017345e+05 1.022703e+05 1.017827e+05 1.022976e+05 1.023024e+05 1.022772e+05 1.022772e+05 1.022766e+05 1.022766e+05 1.021295e+05 1.021444e+05 1.018638e+05 1.022689e+05 1.022689e+05 1.021495e+05 1.021495e+05 1.022468e+05 1.018274e+05 1.018274e+05 1.018274e+05 1.021892e+05 1.018192e+05 1.017058e+05 1.017058e+05 1.017058e+05 1.017154e+05 1.017154e+05 1.020425e+05 1.020526e+05 1.022988e+05 1.022988e+05 1.022999e+05 1.017137e+05 1.017211e+05 1.019997e+05 1.019997e+05 1.019783e+05 1.020939e+05 1.022714e+05 1.017279e+05 1.017279e+05 1.017279e+05 1.017288e+05 1.023001e+05 1.023001e+05 1.022984e+05 1.022743e+05 1.022735e+05 1.022735e+05 1.017665e+05 1.017665e+05 1.017665e+05 1.017416e+05 1.017183e+05 1.017577e+05 1.017603e+05 1.017603e+05 1.019223e+05 1.018740e+05 1.018740e+05 1.018905e+05 1.021736e+05 1.021576e+05 1.021576e+05 1.022722e+05 1.022722e+05 1.017173e+05 1.019600e+05 1.019600e+05 1.017963e+05 1.018041e+05 1.018041e+05 1.018429e+05 1.018513e+05 1.019381e+05 1.022614e+05 1.017415e+05 1.017415e+05 1.017415e+05 1.017340e+05 1.022711e+05 1.022681e+05 1.018483e+05 1.018483e+05 1.022604e+05 1.022604e+05 1.022604e+05 1.020758e+05 1.020758e+05 1.020758e+05 1.019759e+05 1.017444e+05 1.020371e+05 1.020371e+05 1.020371e+05 1.017236e+05 1.022942e+05 1.017548e+05 1.017542e+05 1.019190e+05 1.019371e+05 1.019371e+05 1.019977e+05 1.018889e+05 1.022820e+05 1.022932e+05 1.022932e+05 1.018559e+05 1.022271e+05 1.022271e+05 1.022103e+05 1.022105e+05 1.022580e+05 1.022534e+05 1.022534e+05 1.021913e+05 1.020289e+05 1.020289e+05 1.020153e+05 1.020153e+05 1.022393e+05 1.022393e+05 1.022269e+05 1.022269e+05 1.018609e+05 1.022911e+05 1.022851e+05 1.019103e+05 1.019103e+05 1.021234e+05 1.017324e+05 1.021434e+05 1.022026e+05 1.021164e+05 1.021164e+05 1.018232e+05 1.017392e+05 1.020624e+05 1.022535e+05 1.022581e+05 1.022581e+05 1.017516e+05 1.020862e+05 1.020862e+05 1.020921e+05 1.018725e+05 1.018725e+05 1.018725e+05 1.017978e+05 1.020086e+05 1.017452e+05 1.017452e+05 1.017399e+05 1.021441e+05 1.021441e+05 1.020661e+05 1.022670e+05 1.022670e+05 1.022670e+05 1.019633e+05 1.022722e+05 1.019866e+05 1.021355e+05 1.020967e+05 1.019031e+05 1.019155e+05 1.019155e+05 1.017667e+05 1.017726e+05 1.017726e+05 1.017366e+05 1.017411e+05 1.017708e+05 1.017762e+05 1.017762e+05 1.022770e+05 1.022770e+05 1.022770e+05 1.022441e+05 1.022395e+05 1.022395e+05 1.018026e+05 1.022634e+05 1.021224e+05 1.019209e+05 1.019209e+05 1.017413e+05 1.017413e+05 1.017567e+05 1.022856e+05 1.022856e+05 1.018167e+05 1.021686e+05 1.021554e+05 1.021554e+05 1.019850e+05 1.019850e+05 1.021633e+05 1.021633e+05 1.018888e+05 1.018688e+05 1.017602e+05 1.021088e+05 1.022799e+05 1.022799e+05 1.022466e+05 1.020737e+05 1.020737e+05 1.020530e+05 1.020530e+05 1.017428e+05 1.018926e+05 1.017853e+05 1.017739e+05 1.019606e+05 1.019506e+05 1.017612e+05 1.020264e+05 1.020264e+05 1.020264e+05 1.022507e+05 1.022507e+05 1.022630e+05 1.017871e+05 1.017871e+05 1.017871e+05 1.017727e+05 1.017727e+05 1.021784e+05 1.021784e+05 1.021858e+05 1.022588e+05 1.022618e+05 1.018736e+05 1.022338e+05 1.022338e+05 1.022294e+05 1.019368e+05 1.022485e+05 1.022485e+05 1.020021e+05 1.018049e+05 1.018049e+05 1.018049e+05 1.017903e+05 1.020873e+05 1.017522e+05 1.017569e+05 1.017616e+05 1.017621e+05 1.020865e+05 1.020500e+05 1.018109e+05 1.022628e+05 1.022532e+05 1.022532e+05 1.022532e+05 1.022674e+05 1.018083e+05 1.022620e+05 1.022032e+05 1.022092e+05 1.020368e+05 1.020368e+05 1.020368e+05 1.018908e+05 1.018908e+05 1.018908e+05 1.019059e+05 1.019059e+05 1.022615e+05 1.022518e+05 1.022518e+05 1.022518e+05 1.019234e+05 1.021698e+05 1.021698e+05 1.021698e+05 1.019226e+05 1.020746e+05 1.020746e+05 1.020746e+05 1.017839e+05 1.017839e+05 1.017839e+05 1.017576e+05 1.018392e+05 1.022191e+05 1.022191e+05 1.021452e+05 1.022554e+05 1.018682e+05 1.018579e+05 1.018579e+05 1.018579e+05 1.019888e+05 1.022057e+05 1.021974e+05 1.018003e+05 1.017942e+05 1.019487e+05 1.017896e+05 1.022471e+05 1.022471e+05 1.022517e+05 1.022436e+05 1.021190e+05 1.019439e+05 1.022356e+05 1.018699e+05 1.018699e+05 1.019012e+05 1.019791e+05 1.019061e+05 1.019061e+05 1.018930e+05 1.018812e+05 1.017900e+05 1.017900e+05 1.020608e+05 1.020608e+05 1.020753e+05 1.020780e+05 1.022132e+05 1.022089e+05 1.019503e+05 1.019633e+05 1.021329e+05 1.022532e+05 1.022640e+05 1.018033e+05 1.018147e+05 1.018147e+05 1.018147e+05 1.022288e+05 1.022288e+05 1.020237e+05 1.020237e+05 1.020269e+05 1.021965e+05 1.021198e+05 1.021151e+05 1.021151e+05 1.018694e+05 1.018694e+05 1.018655e+05 1.018307e+05 1.018307e+05 1.019246e+05 1.018165e+05 1.018317e+05 1.018861e+05 1.018820e+05 1.018959e+05 1.019098e+05 1.021429e+05 1.020598e+05 1.020598e+05 1.020598e+05 1.020799e+05 1.022098e+05 1.022418e+05 1.019613e+05 1.022203e+05 1.020404e+05 1.020404e+05 1.020705e+05 1.020013e+05 1.020013e+05 1.019989e+05 1.019989e+05 1.019219e+05 1.019287e+05 1.018519e+05 1.018066e+05 1.019708e+05 1.018623e+05 1.020418e+05 1.020418e+05 1.019495e+05 1.019495e+05 1.019495e+05 1.019391e+05 1.022063e+05 1.022027e+05 1.019398e+05 1.018347e+05 1.019061e+05 1.020919e+05 1.019752e+05 1.019752e+05 1.020587e+05 1.020587e+05 1.018780e+05 1.018780e+05 1.020212e+05 1.021978e+05 1.021704e+05 1.021704e+05 1.021531e+05 1.018445e+05 1.020422e+05 1.021929e+05 1.019221e+05 1.019221e+05 1.019289e+05 1.019723e+05 1.019840e+05 1.021520e+05 1.021520e+05 1.019443e+05 1.019443e+05 1.019068e+05 1.018927e+05 1.018927e+05 1.019708e+05 1.021198e+05 1.018780e+05 1.020313e+05 1.020966e+05 1.021495e+05 1.018612e+05 1.019259e+05 1.020613e+05 1.020613e+05 1.021111e+05 1.018798e+05 1.018719e+05 1.018989e+05 1.018989e+05 1.018989e+05 1.019110e+05 1.019740e+05 1.019740e+05 1.021110e+05 1.021110e+05 1.020833e+05 1.020833e+05 1.019851e+05 1.019059e+05 1.018955e+05 1.020329e+05 1.020329e+05 1.020329e+05 1.020153e+05 1.019452e+05 1.019452e+05 1.020367e+05 1.020367e+05 1.019784e+05 1.019784e+05 1.019841e+05 1.019004e+05 1.019004e+05 1.019004e+05 1.018906e+05 1.019721e+05 1.019561e+05 1.019561e+05 1.018936e+05 1.019361e+05 1.019194e+05 1.019062e+05 1.019089e+05 1.019089e+05 1.019510e+05 1.020634e+05 1.019378e+05 1.019445e+05 1.019615e+05 1.019218e+05 1.019218e+05 1.020050e+05 1.020022e+05 1.020545e+05 1.019192e+05 1.019192e+05 1.019009e+05 1.020462e+05 1.020462e+05 1.020233e+05 1.019367e+05 1.019233e+05 1.019233e+05 1.019233e+05 1.019202e+05 1.019972e+05 1.019219e+05 1.019357e+05 1.019608e+05 1.019219e+05 1.019434e+05 1.019435e+05 1.019435e+05 1.019440e+05 1.019468e+05 1.019173e+05 1.019258e+05 1.019237e+05 1.019237e+05 1.019237e+05 1.019175e+05 1.019398e+05 1.019398e+05 1.019398e+05 1.019179e+05 1.019179e+05 1.019379e+05 1.019182e+05 1.019105e+05 1.019346e+05 1.019136e+05 1.019340e+05 1.019114e+05 1.019083e+05 1.019256e+05 1.019256e+05 1.019185e+05 1.019185e+05 1.019062e+05 1.019230e+05 1.019230e+05 1.019230e+05 1.019224e+05 1.019224e+05 1.019083e+05 1.019083e+05 1.019083e+05 1.021477e+05 1.021616e+05 1.021616e+05 1.021616e+05 1.018984e+05 1.018984e+05 1.021411e+05 1.021411e+05 1.021411e+05 1.021666e+05 1.021666e+05 1.019086e+05 1.018864e+05 1.021386e+05 1.021386e+05 1.021244e+05 1.019116e+05 1.021688e+05 1.021673e+05 1.021694e+05 1.019106e+05 1.018921e+05 1.018934e+05 1.019326e+05 1.019326e+05 1.019408e+05 1.022794e+05 1.020410e+05 1.020410e+05 1.020410e+05 1.020129e+05 1.021034e+05 1.021034e+05 1.021034e+05 1.021120e+05 1.021040e+05 1.021040e+05 1.022401e+05 1.020543e+05 1.020543e+05 1.020543e+05 1.020711e+05 1.019619e+05 1.022671e+05 1.022671e+05 1.022671e+05 1.021057e+05 1.022334e+05 1.022334e+05 1.021941e+05 1.021941e+05 1.021941e+05 1.020757e+05 1.020757e+05 1.020757e+05 1.021188e+05 1.020849e+05 1.020849e+05 1.020605e+05 1.021286e+05 1.020423e+05 1.020805e+05 1.020843e+05 1.020405e+05 1.020327e+05 1.019983e+05 1.020409e+05 1.019866e+05 1.019743e+05 1.019903e+05 1.019903e+05 1.019688e+05 1.019688e+05 1.019688e+05 1.019285e+05 1.022641e+05 1.021270e+05 1.021270e+05 1.020857e+05 1.020755e+05 1.020364e+05 1.020364e+05 1.022155e+05 1.022155e+05 1.021841e+05 1.021841e+05 1.021377e+05 1.021165e+05 1.020513e+05 1.020256e+05 1.019735e+05 1.019735e+05 1.019323e+05 1.019445e+05 1.022534e+05 1.022534e+05 1.020350e+05 1.019784e+05 1.019784e+05 1.020093e+05 1.019758e+05 1.019631e+05 1.019476e+05 1.019476e+05 1.019476e+05 1.019528e+05 1.019528e+05 1.019430e+05 1.019412e+05 1.019412e+05 1.019412e+05 1.019716e+05 1.019716e+05 1.019263e+05 1.019399e+05 1.019399e+05 1.019354e+05 1.019333e+05 1.019333e+05 1.019124e+05 1.019196e+05 1.019202e+05 1.019325e+05 1.019325e+05 1.019325e+05 1.019388e+05 1.019466e+05 1.019109e+05 1.019354e+05 1.021551e+05 1.019179e+05 1.019125e+05 1.019258e+05 1.019256e+05 1.021783e+05 1.022120e+05 1.022120e+05 1.022223e+05 1.022223e+05 1.022394e+05 1.022394e+05 1.022394e+05 1.022538e+05 1.022626e+05 1.022626e+05 1.022626e+05 1.022845e+05 1.019289e+05 1.019335e+05 1.019335e+05 1.019335e+05 1.019435e+05 1.019462e+05 1.019502e+05 1.020241e+05 1.019481e+05 1.019560e+05 1.019587e+05 1.019588e+05 1.019672e+05 1.019636e+05 1.019543e+05 1.019374e+05 1.019441e+05 1.019385e+05 1.019385e+05 1.019319e+05 1.019319e+05 1.019457e+05 1.019383e+05 1.019300e+05 1.019301e+05 1.021748e+05 1.022024e+05 1.022561e+05 1.023022e+05 1.023082e+05 1.023117e+05 1.023077e+05 1.023059e+05 1.023078e+05 1.023071e+05 1.023058e+05 1.023096e+05 1.023096e+05 1.023066e+05 1.023045e+05 1.019080e+05 1.019080e+05 1.019177e+05 1.019177e+05 1.019193e+05 1.019241e+05 1.019281e+05 1.019281e+05 1.019281e+05 1.019283e+05 1.019264e+05 1.019264e+05 1.019170e+05 1.019170e+05 1.019170e+05 1.019635e+05 1.019635e+05 1.019635e+05 1.019711e+05 1.019711e+05 1.019187e+05 1.019187e+05 1.019187e+05 1.019239e+05 1.019080e+05 1.019146e+05 1.019146e+05 1.019269e+05 1.019560e+05 1.019560e+05 1.023021e+05 1.023021e+05 1.023021e+05 1.023128e+05 1.023128e+05 1.019249e+05 1.019314e+05 1.019314e+05 1.022937e+05 1.022937e+05 1.023009e+05 1.022353e+05 1.022353e+05 1.022353e+05 1.021436e+05 1.021436e+05 1.021436e+05 1.021157e+05 1.021157e+05 1.019394e+05 1.022859e+05 1.022859e+05 1.022859e+05 1.022800e+05 1.023057e+05 1.023057e+05 1.023057e+05 1.023018e+05 1.023020e+05 1.022920e+05 1.022920e+05 1.022920e+05 1.023113e+05 1.022891e+05 1.022891e+05 1.022891e+05 1.023105e+05 1.021822e+05 1.022032e+05 1.021822e+05 1.021822e+05 1.019728e+05 1.019728e+05 1.019160e+05 1.022392e+05 1.022392e+05 1.022881e+05 1.023066e+05 1.023153e+05 1.023153e+05 1.023105e+05 1.022980e+05 1.022923e+05 1.023031e+05 1.023024e+05 1.022968e+05 1.022968e+05 1.022934e+05 1.022954e+05 1.022946e+05 1.022934e+05 1.022956e+05 1.022852e+05 1.022852e+05 1.022887e+05 1.022887e+05 1.022892e+05 1.022882e+05 1.022876e+05 1.022841e+05 1.022841e+05 1.022787e+05 1.022903e+05 1.022740e+05 1.022647e+05 1.022647e+05 1.022032e+05 1.021710e+05 1.021710e+05 1.021536e+05 1.021536e+05 1.021193e+05 1.021231e+05 1.020742e+05 1.019698e+05 1.019160e+05 1.019160e+05 1.019380e+05 1.019380e+05 1.019380e+05 1.019378e+05 1.019227e+05 1.019413e+05 1.019413e+05 1.019413e+05 1.019445e+05 1.019592e+05 1.019592e+05 1.019592e+05 1.019559e+05 1.019515e+05 1.020050e+05 1.020050e+05 1.020050e+05 1.020147e+05 1.020559e+05 1.020559e+05 1.020559e+05 1.020530e+05 1.020425e+05 1.020120e+05 1.020120e+05 1.020192e+05 1.021149e+05 1.021149e+05 1.021149e+05 1.021317e+05 1.021317e+05 1.021075e+05 1.021075e+05 1.021075e+05 1.019692e+05 1.019692e+05 1.020892e+05 1.020892e+05 1.020892e+05 1.020809e+05 1.020809e+05 1.021985e+05 1.021985e+05 1.021985e+05 1.021537e+05 1.021537e+05 1.021537e+05 1.020757e+05 1.020757e+05 1.020757e+05 1.019657e+05 1.021487e+05 1.021422e+05 1.020931e+05 1.020861e+05 1.021886e+05 1.021598e+05 1.021598e+05 1.020646e+05 1.020646e+05 1.020880e+05 1.020667e+05 1.021209e+05 1.021209e+05 1.021209e+05 1.021972e+05 1.022392e+05 1.020814e+05 1.020361e+05 1.020361e+05 1.020361e+05 1.021143e+05 1.020637e+05 1.020340e+05 1.020184e+05 1.020012e+05 1.020449e+05 1.019966e+05 1.019916e+05 1.019922e+05 1.019922e+05 1.019278e+05 1.022396e+05 1.022396e+05 1.021498e+05 1.020444e+05 1.020444e+05 1.021219e+05 1.022652e+05 1.020172e+05 1.020172e+05 1.019772e+05 1.019772e+05 1.019772e+05 1.020975e+05 1.021619e+05 1.019873e+05 1.020078e+05 1.019812e+05 1.019673e+05 1.019684e+05 1.019684e+05 1.019684e+05 1.019479e+05 1.019479e+05 1.019653e+05 1.019590e+05 1.019590e+05 1.019497e+05 1.019567e+05 1.019394e+05 1.019394e+05 1.019394e+05 1.019297e+05 1.019286e+05 1.021527e+05 1.022324e+05 1.022324e+05 1.022583e+05 1.022583e+05 1.022065e+05 1.019199e+05 1.020480e+05 1.021421e+05 1.021748e+05 1.021751e+05 1.021913e+05 1.021913e+05 1.022132e+05 1.022132e+05 1.022132e+05 1.022327e+05 1.022545e+05 1.022619e+05 1.022657e+05 1.022657e+05 1.022704e+05 1.022886e+05 1.019853e+05 1.020050e+05 1.021895e+05 1.022724e+05 1.020151e+05 1.020150e+05 1.019790e+05 1.019658e+05 1.019903e+05 1.019683e+05 1.019472e+05 1.019931e+05 1.019502e+05 1.019502e+05 1.019483e+05 1.019423e+05 1.019331e+05 1.019330e+05 1.019330e+05 1.019305e+05 1.019403e+05 1.019396e+05 1.021738e+05 1.022046e+05 1.022387e+05 1.022773e+05 1.022423e+05 1.022609e+05 1.022128e+05 1.022716e+05 1.022545e+05 1.019298e+05 1.019177e+05 1.023082e+05 1.023107e+05 1.023079e+05 1.023073e+05 1.023092e+05 1.023022e+05 1.023030e+05 1.023010e+05 1.022982e+05 1.022939e+05 1.022889e+05 1.022857e+05 1.022828e+05 1.022780e+05 1.022769e+05 1.022829e+05 1.022760e+05 1.022770e+05 1.022778e+05 1.022770e+05 1.022773e+05 1.022749e+05 1.022854e+05 1.022681e+05 1.022713e+05 1.022623e+05 1.022569e+05 1.022504e+05 1.022451e+05 1.022372e+05 1.022283e+05 1.022266e+05 1.022140e+05 1.022106e+05 1.022025e+05 1.021931e+05 1.021872e+05 1.021788e+05 1.021685e+05 1.021622e+05 1.021607e+05 1.021558e+05 1.021443e+05 1.021344e+05 1.021317e+05 1.021266e+05 1.021229e+05 1.021189e+05 1.021083e+05 1.021017e+05 1.020922e+05 1.020802e+05 1.020691e+05 1.020535e+05 1.020457e+05 1.020317e+05 1.020156e+05 1.020069e+05 1.019966e+05 1.019894e+05 1.019886e+05 1.019770e+05 1.019720e+05 1.019660e+05 1.019679e+05 1.019521e+05 1.019418e+05 1.019362e+05 1.019284e+05 1.019146e+05 1.018982e+05 1.018911e+05 1.018771e+05 1.018671e+05 1.018565e+05 1.018507e+05 1.018401e+05 1.018346e+05 1.018242e+05 1.018172e+05 1.018111e+05 1.018034e+05 1.017933e+05 1.017877e+05 1.017825e+05 1.017767e+05 1.017710e+05 1.017645e+05 1.017589e+05 1.017543e+05 1.017467e+05 1.017430e+05 1.017343e+05 1.017303e+05 1.017268e+05 1.017191e+05 1.017195e+05 1.017150e+05 1.017117e+05 1.017089e+05 1.017091e+05 1.017086e+05 1.017039e+05 1.017029e+05 1.016981e+05 1.017024e+05 1.016993e+05 1.016935e+05 1.016967e+05 1.016921e+05 1.016926e+05 1.016911e+05 1.016864e+05 1.016844e+05 1.016828e+05 1.016766e+05 1.016814e+05 1.016798e+05 1.016780e+05 1.016798e+05 1.016824e+05 1.016847e+05 1.016877e+05 1.016877e+05 1.018776e+05 1.018776e+05 1.019156e+05 1.019185e+05 1.019215e+05 1.019256e+05 1.019285e+05 1.019285e+05 1.019290e+05 1.019305e+05 1.019331e+05 1.019331e+05 1.019387e+05 1.019387e+05 1.019472e+05 1.019515e+05 1.019568e+05 1.019570e+05 1.019658e+05 1.019853e+05 1.019853e+05 1.020050e+05 1.020050e+05 1.020151e+05 1.020187e+05 1.020444e+05 1.020480e+05 1.020498e+05 1.020750e+05 1.020860e+05 1.020861e+05 1.020975e+05 1.021212e+05 1.021317e+05 1.021380e+05 1.021634e+05 1.021748e+05 1.021748e+05 1.021722e+05 1.021993e+05 1.021993e+05 1.022387e+05 1.022171e+05 1.022171e+05 1.022396e+05 1.022619e+05 1.022619e+05 1.022657e+05 1.022724e+05 1.022765e+05 1.022765e+05 1.022931e+05 1.022923e+05 1.022980e+05 1.023088e+05 1.022994e+05 1.018809e+05 1.020011e+05 1.020011e+05 1.020011e+05 1.020147e+05 1.019375e+05 1.019375e+05 1.019375e+05 1.019499e+05 1.019499e+05 1.020184e+05 1.020184e+05 1.020184e+05 1.020236e+05 1.020087e+05 1.018984e+05 1.019649e+05 1.019649e+05 1.019667e+05 1.019984e+05 1.019984e+05 1.019984e+05 1.019964e+05 1.019898e+05 1.019982e+05 1.019982e+05 1.019982e+05 1.019915e+05 1.019116e+05 1.019116e+05 1.019116e+05 1.019122e+05 1.019081e+05 1.019081e+05 1.019923e+05 1.019923e+05 1.019705e+05 1.019534e+05 1.018809e+05 1.018809e+05 1.019227e+05 1.019227e+05 1.019227e+05 1.019188e+05 1.019164e+05 1.019164e+05 1.019164e+05 1.019639e+05 1.019639e+05 1.019639e+05 1.019697e+05 1.019697e+05 1.019731e+05 1.019779e+05 1.019475e+05 1.019475e+05 1.019475e+05 1.019420e+05 1.019269e+05 1.019194e+05 1.018904e+05 1.019194e+05 1.021089e+05 1.021089e+05 1.021089e+05 1.021519e+05 1.021519e+05 1.021519e+05 1.021345e+05 1.017841e+05 1.017777e+05 1.017841e+05 1.017841e+05 1.019748e+05 1.019748e+05 1.019748e+05 1.019720e+05 1.021153e+05 1.021153e+05 1.021153e+05 1.021154e+05 1.021938e+05 1.021938e+05 1.021938e+05 1.021832e+05 1.021832e+05 1.017344e+05 1.017344e+05 1.017344e+05 1.017283e+05 1.017497e+05 1.017497e+05 1.017497e+05 1.017483e+05 1.017483e+05 1.022721e+05 1.022721e+05 1.022721e+05 1.022765e+05 1.018228e+05 1.018228e+05 1.018228e+05 1.018357e+05 1.018357e+05 1.017182e+05 1.017279e+05 1.021671e+05 1.021671e+05 1.021671e+05 1.021655e+05 1.022141e+05 1.022141e+05 1.022141e+05 1.022252e+05 1.022252e+05 1.018377e+05 1.018377e+05 1.018377e+05 1.018410e+05 1.021820e+05 1.021820e+05 1.021820e+05 1.021895e+05 1.016844e+05 1.019741e+05 1.019741e+05 1.019741e+05 1.018676e+05 1.018676e+05 1.018676e+05 1.018612e+05 1.018021e+05 1.018021e+05 1.018021e+05 1.017907e+05 1.017150e+05 1.017168e+05 1.017168e+05 1.017168e+05 1.017131e+05 1.017712e+05 1.017712e+05 1.017712e+05 1.017837e+05 1.017837e+05 1.017279e+05 1.017279e+05 1.017182e+05 1.022160e+05 1.022160e+05 1.022160e+05 1.022150e+05 1.022150e+05 1.018394e+05 1.018487e+05 1.018487e+05 1.021437e+05 1.021437e+05 1.021437e+05 1.021475e+05 1.021475e+05 1.021418e+05 1.021418e+05 1.021418e+05 1.021489e+05 1.018339e+05 1.018216e+05 1.018339e+05 1.018339e+05 1.018719e+05 1.019760e+05 1.019760e+05 1.019760e+05 1.019634e+05 1.019759e+05 1.019877e+05 1.019877e+05 1.019359e+05 1.019359e+05 1.019388e+05 1.019388e+05 1.020179e+05 1.020179e+05 1.020179e+05 1.020293e+05 1.020293e+05 1.019254e+05 1.019254e+05 1.019254e+05 1.019304e+05 1.019365e+05 1.019472e+05 1.019416e+05 1.020740e+05 1.020740e+05 1.020740e+05 1.020681e+05 1.021076e+05 1.021076e+05 1.021076e+05 1.020979e+05 1.019852e+05 1.019852e+05 1.019852e+05 1.021811e+05 1.021811e+05 1.021811e+05 1.018750e+05 1.018750e+05 1.018750e+05 1.022136e+05 1.022136e+05 1.022136e+05 1.017726e+05 1.017726e+05 1.017726e+05 1.018024e+05 1.017754e+05 1.018491e+05 1.018491e+05 1.018491e+05 1.017837e+05 1.017837e+05 1.017967e+05 1.019274e+05 1.019274e+05 1.019274e+05 1.019352e+05 1.018370e+05 1.018370e+05 1.018370e+05 1.018345e+05 1.018174e+05 1.018174e+05 1.022732e+05 1.022732e+05 1.022732e+05 1.022668e+05 1.017454e+05 1.017454e+05 1.017454e+05 1.017531e+05 1.017585e+05 1.017585e+05 1.017585e+05 1.017676e+05 1.022148e+05 1.022148e+05 1.022148e+05 1.019536e+05 1.019536e+05 1.019536e+05 1.019619e+05 1.017895e+05 1.017895e+05 1.017895e+05 1.017942e+05 1.017633e+05 1.017633e+05 1.017633e+05 1.017754e+05 1.018302e+05 1.018302e+05 1.018302e+05 1.018334e+05 1.