<?xml version="1.0"?>
 <VTKFile type="UnstructuredGrid" version="1.0" byte_order="LittleEndian" header_type="UInt64">
  <UnstructuredGrid>
    <FieldData>
     <DataArray type="Float64" Name="TimeValue" NumberOfTuples="1" format="ascii">
1e-05
     </DataArray>
    </FieldData>
   <Piece NumberOfPoints="3632" NumberOfCells="3379">
    <PointData>
     <DataArray type="Float64" Name="pointP" format="ascii">
1.023048e+05 1.023048e+05 1.023044e+05 1.023009e+05 1.023087e+05 1.022950e+05 1.022922e+05 1.022874e+05 1.022909e+05 1.022748e+05 1.022785e+05 1.022809e+05 1.022713e+05 1.022673e+05 1.022637e+05 1.022599e+05 1.022474e+05 1.022385e+05 1.022356e+05 1.022353e+05 1.022156e+05 1.022123e+05 1.022034e+05 1.021943e+05 1.021900e+05 1.021821e+05 1.021815e+05 1.021693e+05 1.021634e+05 1.021579e+05 1.021516e+05 1.021494e+05 1.021409e+05 1.021281e+05 1.021256e+05 1.021089e+05 1.020993e+05 1.020923e+05 1.020841e+05 1.020776e+05 1.020705e+05 1.020657e+05 1.020560e+05 1.020494e+05 1.020401e+05 1.020354e+05 1.020322e+05 1.020219e+05 1.020170e+05 1.020086e+05 1.019987e+05 1.019924e+05 1.019857e+05 1.019762e+05 1.019729e+05 1.019576e+05 1.019437e+05 1.019371e+05 1.019292e+05 1.019215e+05 1.019145e+05 1.019033e+05 1.018924e+05 1.018871e+05 1.018814e+05 1.018718e+05 1.018616e+05 1.018556e+05 1.018487e+05 1.018386e+05 1.018285e+05 1.018233e+05 1.018199e+05 1.018120e+05 1.018038e+05 1.017988e+05 1.017935e+05 1.017894e+05 1.017861e+05 1.017770e+05 1.017720e+05 1.017657e+05 1.017592e+05 1.017546e+05 1.017456e+05 1.017412e+05 1.017387e+05 1.017357e+05 1.017283e+05 1.017253e+05 1.017231e+05 1.017197e+05 1.017213e+05 1.017157e+05 1.017159e+05 1.017162e+05 1.017163e+05 1.017140e+05 1.017120e+05 1.017100e+05 1.017065e+05 1.017053e+05 1.017049e+05 1.016995e+05 1.016918e+05 1.016914e+05 1.016876e+05 1.016813e+05 1.016863e+05 1.016802e+05 1.016837e+05 1.016849e+05 1.016857e+05 1.016875e+05 1.016846e+05 1.016866e+05 1.016883e+05 1.016841e+05 1.016907e+05 1.016922e+05 1.016903e+05 1.016902e+05 1.016949e+05 1.016925e+05 1.016964e+05 1.016977e+05 1.016918e+05 1.016951e+05 1.017005e+05 1.016980e+05 1.017000e+05 1.017043e+05 1.016971e+05 1.017099e+05 1.017083e+05 1.017142e+05 1.017126e+05 1.017152e+05 1.017201e+05 1.017161e+05 1.017242e+05 1.017301e+05 1.017282e+05 1.017296e+05 1.017349e+05 1.017286e+05 1.017376e+05 1.017350e+05 1.017422e+05 1.017365e+05 1.017418e+05 1.017446e+05 1.017400e+05 1.017377e+05 1.017422e+05 1.017469e+05 1.017542e+05 1.017580e+05 1.017531e+05 1.017577e+05 1.017668e+05 1.017751e+05 1.017734e+05 1.017704e+05 1.017750e+05 1.017838e+05 1.017884e+05 1.017766e+05 1.017887e+05 1.017850e+05 1.017969e+05 1.017962e+05 1.018006e+05 1.018076e+05 1.018074e+05 1.018117e+05 1.018168e+05 1.018189e+05 1.018235e+05 1.018309e+05 1.018271e+05 1.019086e+05 1.019086e+05 1.019086e+05 1.018997e+05 1.018997e+05 1.018997e+05 1.019204e+05 1.019011e+05 1.019159e+05 1.019085e+05 1.019595e+05 1.019595e+05 1.019595e+05 1.019416e+05 1.019202e+05 1.019202e+05 1.019202e+05 1.019078e+05 1.019249e+05 1.021786e+05 1.021786e+05 1.021786e+05 1.021831e+05 1.021645e+05 1.021645e+05 1.021645e+05 1.021450e+05 1.017877e+05 1.017877e+05 1.017877e+05 1.017885e+05 1.017961e+05 1.018005e+05 1.018021e+05 1.018021e+05 1.018021e+05 1.017892e+05 1.017892e+05 1.020800e+05 1.020800e+05 1.020800e+05 1.020808e+05 1.017956e+05 1.017956e+05 1.017956e+05 1.017814e+05 1.017814e+05 1.022907e+05 1.022907e+05 1.022907e+05 1.018147e+05 1.018147e+05 1.018147e+05 1.018252e+05 1.017835e+05 1.017835e+05 1.017835e+05 1.020045e+05 1.020045e+05 1.020045e+05 1.019982e+05 1.017050e+05 1.017050e+05 1.017132e+05 1.017132e+05 1.018264e+05 1.018264e+05 1.018318e+05 1.020245e+05 1.020245e+05 1.020245e+05 1.020353e+05 1.020353e+05 1.017905e+05 1.017905e+05 1.017905e+05 1.017911e+05 1.017911e+05 1.019415e+05 1.019415e+05 1.019415e+05 1.019306e+05 1.019306e+05 1.021794e+05 1.021794e+05 1.018601e+05 1.018601e+05 1.018601e+05 1.018707e+05 1.017610e+05 1.017610e+05 1.017610e+05 1.017531e+05 1.017668e+05 1.018600e+05 1.018600e+05 1.018600e+05 1.018253e+05 1.018253e+05 1.018229e+05 1.021089e+05 1.021106e+05 1.021106e+05 1.018076e+05 1.018070e+05 1.018070e+05 1.017454e+05 1.016964e+05 1.017035e+05 1.019406e+05 1.019506e+05 1.019506e+05 1.019506e+05 1.019463e+05 1.019338e+05 1.019596e+05 1.019596e+05 1.019596e+05 1.019701e+05 1.019701e+05 1.019003e+05 1.019003e+05 1.019003e+05 1.019022e+05 1.018609e+05 1.018609e+05 1.018609e+05 1.018642e+05 1.021726e+05 1.021802e+05 1.021633e+05 1.021978e+05 1.021978e+05 1.018646e+05 1.018646e+05 1.018646e+05 1.018788e+05 1.019800e+05 1.019800e+05 1.019800e+05 1.020030e+05 1.020030e+05 1.019924e+05 1.018112e+05 1.018112e+05 1.018112e+05 1.018190e+05 1.017842e+05 1.017842e+05 1.017842e+05 1.017849e+05 1.017975e+05 1.019206e+05 1.019206e+05 1.019206e+05 1.019349e+05 1.018652e+05 1.018611e+05 1.017719e+05 1.017719e+05 1.017719e+05 1.017748e+05 1.017851e+05 1.017851e+05 1.017851e+05 1.017707e+05 1.020307e+05 1.020307e+05 1.020307e+05 1.020351e+05 1.020351e+05 1.017639e+05 1.017639e+05 1.017639e+05 1.017655e+05 1.019777e+05 1.019777e+05 1.019777e+05 1.019773e+05 1.020360e+05 1.020360e+05 1.020360e+05 1.020342e+05 1.017135e+05 1.017135e+05 1.017010e+05 1.017653e+05 1.017653e+05 1.017891e+05 1.017891e+05 1.017891e+05 1.017436e+05 1.017436e+05 1.017436e+05 1.017322e+05 1.018088e+05 1.018088e+05 1.018088e+05 1.018124e+05 1.018124e+05 1.021997e+05 1.021997e+05 1.021997e+05 1.021886e+05 1.021886e+05 1.017663e+05 1.019366e+05 1.019366e+05 1.019405e+05 1.018310e+05 1.018310e+05 1.018310e+05 1.018292e+05 1.017493e+05 1.017493e+05 1.017572e+05 1.017572e+05 1.020760e+05 1.020760e+05 1.020862e+05 1.020130e+05 1.020130e+05 1.017659e+05 1.017659e+05 1.017722e+05 1.017722e+05 1.019867e+05 1.019867e+05 1.019867e+05 1.019896e+05 1.017631e+05 1.017729e+05 1.018478e+05 1.018478e+05 1.018478e+05 1.018362e+05 1.018922e+05 1.018922e+05 1.018922e+05 1.018879e+05 1.018879e+05 1.018124e+05 1.018124e+05 1.018124e+05 1.018176e+05 1.018176e+05 1.018597e+05 1.018694e+05 1.022706e+05 1.022706e+05 1.022706e+05 1.022730e+05 1.017891e+05 1.017891e+05 1.017891e+05 1.017805e+05 1.017805e+05 1.017967e+05 1.017968e+05 1.018234e+05 1.018234e+05 1.018234e+05 1.018380e+05 1.018380e+05 1.017888e+05 1.017782e+05 1.017782e+05 1.017586e+05 1.017586e+05 1.017586e+05 1.017706e+05 1.017706e+05 1.017677e+05 1.017677e+05 1.017677e+05 1.017775e+05 1.017775e+05 1.017967e+05 1.017967e+05 1.018033e+05 1.018033e+05 1.018449e+05 1.018449e+05 1.018394e+05 1.018023e+05 1.018023e+05 1.018084e+05 1.018084e+05 1.017867e+05 1.017867e+05 1.017867e+05 1.017955e+05 1.018467e+05 1.018467e+05 1.018467e+05 1.018505e+05 1.018505e+05 1.021477e+05 1.021649e+05 1.021017e+05 1.019350e+05 1.019350e+05 1.019350e+05 1.019344e+05 1.019344e+05 1.019317e+05 1.019317e+05 1.019369e+05 1.019465e+05 1.019465e+05 1.019395e+05 1.019416e+05 1.019475e+05 1.019475e+05 1.019475e+05 1.019465e+05 1.019465e+05 1.019465e+05 1.019851e+05 1.019851e+05 1.019851e+05 1.019145e+05 1.019083e+05 1.019481e+05 1.019928e+05 1.019928e+05 1.019928e+05 1.019755e+05 1.020200e+05 1.020200e+05 1.020200e+05 1.019674e+05 1.019674e+05 1.019674e+05 1.019631e+05 1.018297e+05 1.018297e+05 1.018297e+05 1.017927e+05 1.017927e+05 1.017927e+05 1.018893e+05 1.018893e+05 1.018893e+05 1.020452e+05 1.020452e+05 1.020529e+05 1.017764e+05 1.017773e+05 1.017773e+05 1.021405e+05 1.021405e+05 1.021405e+05 1.021480e+05 1.021480e+05 1.018469e+05 1.018469e+05 1.018453e+05 1.018507e+05 1.018611e+05 1.022244e+05 1.022244e+05 1.022244e+05 1.022256e+05 1.017625e+05 1.017625e+05 1.017625e+05 1.017842e+05 1.017926e+05 1.017883e+05 1.017625e+05 1.017625e+05 1.017625e+05 1.017346e+05 1.017346e+05 1.017346e+05 1.017457e+05 1.017349e+05 1.017989e+05 1.017989e+05 1.017989e+05 1.022596e+05 1.022596e+05 1.022596e+05 1.022656e+05 1.019216e+05 1.019216e+05 1.019216e+05 1.019193e+05 1.022593e+05 1.022593e+05 1.022593e+05 1.018356e+05 1.017778e+05 1.017778e+05 1.017306e+05 1.017306e+05 1.017306e+05 1.017262e+05 1.017390e+05 1.018287e+05 1.018287e+05 1.018292e+05 1.018389e+05 1.018212e+05 1.020180e+05 1.020180e+05 1.017124e+05 1.017124e+05 1.017124e+05 1.017185e+05 1.017843e+05 1.017843e+05 1.017843e+05 1.018026e+05 1.018871e+05 1.018924e+05 1.018924e+05 1.017054e+05 1.017054e+05 1.017054e+05 1.016978e+05 1.017595e+05 1.017116e+05 1.017116e+05 1.017125e+05 1.020492e+05 1.020492e+05 1.020492e+05 1.022039e+05 1.022039e+05 1.021557e+05 1.021557e+05 1.021557e+05 1.021595e+05 1.022360e+05 1.022360e+05 1.022360e+05 1.022385e+05 1.022385e+05 1.022316e+05 1.021215e+05 1.021215e+05 1.017186e+05 1.017078e+05 1.017078e+05 1.017214e+05 1.016964e+05 1.022993e+05 1.022997e+05 1.022993e+05 1.022993e+05 1.019277e+05 1.019277e+05 1.019277e+05 1.019326e+05 1.019326e+05 1.020964e+05 1.020964e+05 1.020848e+05 1.020848e+05 1.020278e+05 1.020278e+05 1.020278e+05 1.020360e+05 1.020360e+05 1.018063e+05 1.018063e+05 1.018063e+05 1.018204e+05 1.018204e+05 1.022546e+05 1.022546e+05 1.022546e+05 1.022448e+05 1.022448e+05 1.019266e+05 1.019266e+05 1.019266e+05 1.018500e+05 1.018507e+05 1.018507e+05 1.018507e+05 1.018515e+05 1.018515e+05 1.018229e+05 1.018229e+05 1.018229e+05 1.018232e+05 1.018232e+05 1.018139e+05 1.018139e+05 1.018139e+05 1.018237e+05 1.018237e+05 1.022101e+05 1.022101e+05 1.022101e+05 1.019215e+05 1.019215e+05 1.019215e+05 1.019129e+05 1.019129e+05 1.018535e+05 1.018677e+05 1.018871e+05 1.018871e+05 1.018871e+05 1.018919e+05 1.019562e+05 1.019562e+05 1.019547e+05 1.019453e+05 1.019453e+05 1.019429e+05 1.019429e+05 1.019491e+05 1.019551e+05 1.019826e+05 1.019772e+05 1.019826e+05 1.019826e+05 1.019159e+05 1.019159e+05 1.019117e+05 1.020175e+05 1.020249e+05 1.022414e+05 1.022414e+05 1.022414e+05 1.022331e+05 1.022425e+05 1.017827e+05 1.017827e+05 1.017827e+05 1.017847e+05 1.018051e+05 1.017677e+05 1.018390e+05 1.018390e+05 1.018390e+05 1.018433e+05 1.019699e+05 1.019607e+05 1.019672e+05 1.017498e+05 1.017498e+05 1.017524e+05 1.017750e+05 1.017618e+05 1.017618e+05 1.017728e+05 1.017631e+05 1.017118e+05 1.017061e+05 1.017207e+05 1.016959e+05 1.016959e+05 1.016959e+05 1.016887e+05 1.017469e+05 1.017469e+05 1.017469e+05 1.017501e+05 1.017225e+05 1.017376e+05 1.017414e+05 1.017414e+05 1.018482e+05 1.018482e+05 1.018482e+05 1.016827e+05 1.021451e+05 1.021451e+05 1.017085e+05 1.017085e+05 1.017085e+05 1.018913e+05 1.017797e+05 1.017797e+05 1.017003e+05 1.016964e+05 1.016964e+05 1.016964e+05 1.016936e+05 1.016988e+05 1.018051e+05 1.018051e+05 1.017922e+05 1.017542e+05 1.017278e+05 1.017278e+05 1.017385e+05 1.017385e+05 1.017385e+05 1.017404e+05 1.020826e+05 1.021007e+05 1.021007e+05 1.018604e+05 1.017526e+05 1.017526e+05 1.017568e+05 1.021341e+05 1.021341e+05 1.020968e+05 1.019779e+05 1.016922e+05 1.017022e+05 1.017022e+05 1.022692e+05 1.022692e+05 1.017000e+05 1.021705e+05 1.021705e+05 1.016959e+05 1.016959e+05 1.016959e+05 1.016960e+05 1.017148e+05 1.017148e+05 1.017103e+05 1.017103e+05 1.017944e+05 1.017991e+05 1.018137e+05 1.018024e+05 1.017349e+05 1.017408e+05 1.017408e+05 1.017357e+05 1.017424e+05 1.017424e+05 1.018095e+05 1.018095e+05 1.017973e+05 1.017973e+05 1.020471e+05 1.017478e+05 1.022732e+05 1.022732e+05 1.022842e+05 1.022864e+05 1.022864e+05 1.020705e+05 1.020672e+05 1.019137e+05 1.019137e+05 1.019137e+05 1.022190e+05 1.022190e+05 1.022190e+05 1.022104e+05 1.017021e+05 1.017021e+05 1.019209e+05 1.017971e+05 1.017971e+05 1.016915e+05 1.017110e+05 1.017117e+05 1.017117e+05 1.017117e+05 1.017525e+05 1.017525e+05 1.020560e+05 1.020550e+05 1.020550e+05 1.017861e+05 1.017899e+05 1.017657e+05 1.017677e+05 1.018221e+05 1.022623e+05 1.022623e+05 1.017223e+05 1.017223e+05 1.017223e+05 1.017248e+05 1.022262e+05 1.017065e+05 1.017010e+05 1.017010e+05 1.016977e+05 1.017077e+05 1.017077e+05 1.017815e+05 1.017815e+05 1.017874e+05 1.018718e+05 1.018831e+05 1.018831e+05 1.017211e+05 1.022633e+05 1.022633e+05 1.022634e+05 1.022634e+05 1.017260e+05 1.017260e+05 1.017260e+05 1.017281e+05 1.017281e+05 1.017281e+05 1.017270e+05 1.017270e+05 1.021202e+05 1.022594e+05 1.022495e+05 1.022419e+05 1.020824e+05 1.022577e+05 1.017678e+05 1.017932e+05 1.018056e+05 1.017278e+05 1.017278e+05 1.019920e+05 1.019352e+05 1.017117e+05 1.017183e+05 1.017252e+05 1.017252e+05 1.023048e+05 1.023034e+05 1.022941e+05 1.022941e+05 1.022941e+05 1.022853e+05 1.021497e+05 1.021349e+05 1.021460e+05 1.021541e+05 1.017930e+05 1.017930e+05 1.017843e+05 1.020928e+05 1.017592e+05 1.017487e+05 1.019774e+05 1.019596e+05 1.019596e+05 1.019596e+05 1.017207e+05 1.017063e+05 1.017063e+05 1.017063e+05 1.022994e+05 1.021531e+05 1.022635e+05 1.022588e+05 1.017125e+05 1.018828e+05 1.022834e+05 1.022895e+05 1.017996e+05 1.018019e+05 1.018019e+05 1.018392e+05 1.019137e+05 1.017635e+05 1.017824e+05 1.021279e+05 1.021259e+05 1.021259e+05 1.017503e+05 1.017503e+05 1.017589e+05 1.017589e+05 1.017074e+05 1.020045e+05 1.017415e+05 1.018462e+05 1.021766e+05 1.021651e+05 1.017156e+05 1.017415e+05 1.017548e+05 1.017548e+05 1.021555e+05 1.021555e+05 1.021563e+05 1.021563e+05 1.017178e+05 1.017223e+05 1.017211e+05 1.017211e+05 1.017097e+05 1.017057e+05 1.017057e+05 1.017133e+05 1.017133e+05 1.017116e+05 1.017116e+05 1.018399e+05 1.022661e+05 1.022661e+05 1.021029e+05 1.021029e+05 1.021029e+05 1.020349e+05 1.017528e+05 1.017528e+05 1.017306e+05 1.017306e+05 1.017885e+05 1.017794e+05 1.020545e+05 1.022104e+05 1.018287e+05 1.018026e+05 1.018026e+05 1.017343e+05 1.017343e+05 1.017365e+05 1.017976e+05 1.017976e+05 1.017144e+05 1.017144e+05 1.021822e+05 1.021822e+05 1.018019e+05 1.022880e+05 1.019218e+05 1.019218e+05 1.019181e+05 1.017569e+05 1.017626e+05 1.017727e+05 1.017589e+05 1.017065e+05 1.022543e+05 1.018245e+05 1.017124e+05 1.017124e+05 1.017124e+05 1.017437e+05 1.017437e+05 1.017437e+05 1.017771e+05 1.017074e+05 1.017074e+05 1.017074e+05 1.016967e+05 1.022886e+05 1.022858e+05 1.019894e+05 1.019993e+05 1.019993e+05 1.017522e+05 1.017522e+05 1.017522e+05 1.020364e+05 1.017519e+05 1.022425e+05 1.023034e+05 1.023034e+05 1.022947e+05 1.017529e+05 1.017214e+05 1.017214e+05 1.017289e+05 1.017155e+05 1.017155e+05 1.022785e+05 1.017973e+05 1.017161e+05 1.017144e+05 1.017314e+05 1.017945e+05 1.018064e+05 1.022007e+05 1.017338e+05 1.017338e+05 1.017338e+05 1.017324e+05 1.017324e+05 1.020556e+05 1.020607e+05 1.020607e+05 1.021850e+05 1.021723e+05 1.017549e+05 1.017480e+05 1.022008e+05 1.022008e+05 1.022008e+05 1.022007e+05 1.017507e+05 1.017507e+05 1.017421e+05 1.018160e+05 1.018160e+05 1.018374e+05 1.018374e+05 1.018374e+05 1.018192e+05 1.017280e+05 1.022265e+05 1.022265e+05 1.022265e+05 1.022182e+05 1.022335e+05 1.017329e+05 1.017329e+05 1.017431e+05 1.017431e+05 1.017576e+05 1.020780e+05 1.020780e+05 1.017408e+05 1.017412e+05 1.020456e+05 1.020456e+05 1.017360e+05 1.017420e+05 1.021531e+05 1.022997e+05 1.022957e+05 1.017223e+05 1.017239e+05 1.022747e+05 1.017226e+05 1.017226e+05 1.017368e+05 1.017368e+05 1.017360e+05 1.017295e+05 1.017313e+05 1.019834e+05 1.017204e+05 1.017493e+05 1.017550e+05 1.021006e+05 1.021006e+05 1.022914e+05 1.022914e+05 1.022914e+05 1.022950e+05 1.018111e+05 1.018111e+05 1.018159e+05 1.018126e+05 1.018208e+05 1.019489e+05 1.018405e+05 1.018258e+05 1.018258e+05 1.018258e+05 1.018326e+05 1.017123e+05 1.023044e+05 1.021815e+05 1.021711e+05 1.021711e+05 1.017721e+05 1.017721e+05 1.017721e+05 1.017730e+05 1.022859e+05 1.022859e+05 1.021505e+05 1.021505e+05 1.021372e+05 1.020083e+05 1.019152e+05 1.022482e+05 1.017238e+05 1.017285e+05 1.022874e+05 1.022896e+05 1.017846e+05 1.019407e+05 1.019407e+05 1.019407e+05 1.019492e+05 1.017663e+05 1.017152e+05 1.017210e+05 1.017997e+05 1.018028e+05 1.017545e+05 1.017651e+05 1.017324e+05 1.017324e+05 1.019705e+05 1.017349e+05 1.017349e+05 1.017411e+05 1.017392e+05 1.017392e+05 1.017179e+05 1.017679e+05 1.017679e+05 1.017622e+05 1.021475e+05 1.022429e+05 1.022429e+05 1.017303e+05 1.017440e+05 1.017440e+05 1.018498e+05 1.017746e+05 1.018257e+05 1.018393e+05 1.021301e+05 1.021301e+05 1.017561e+05 1.017272e+05 1.018432e+05 1.018509e+05 1.018287e+05 1.021496e+05 1.021496e+05 1.019771e+05 1.019771e+05 1.019771e+05 1.018217e+05 1.018314e+05 1.020498e+05 1.020574e+05 1.020574e+05 1.017680e+05 1.017754e+05 1.017754e+05 1.018804e+05 1.018019e+05 1.018144e+05 1.021850e+05 1.022451e+05 1.022451e+05 1.022451e+05 1.022377e+05 1.017934e+05 1.017548e+05 1.017277e+05 1.017291e+05 1.017402e+05 1.017402e+05 1.017402e+05 1.017559e+05 1.017559e+05 1.017559e+05 1.017452e+05 1.017493e+05 1.017668e+05 1.017642e+05 1.017706e+05 1.017352e+05 1.017352e+05 1.017629e+05 1.017708e+05 1.017764e+05 1.017764e+05 1.017349e+05 1.017509e+05 1.017509e+05 1.017553e+05 1.020079e+05 1.020079e+05 1.019935e+05 1.017418e+05 1.017418e+05 1.018002e+05 1.017622e+05 1.017622e+05 1.017625e+05 1.017625e+05 1.018241e+05 1.018241e+05 1.018241e+05 1.021802e+05 1.021887e+05 1.021887e+05 1.018425e+05 1.018425e+05 1.018425e+05 1.018401e+05 1.018102e+05 1.017434e+05 1.022063e+05 1.022063e+05 1.021996e+05 1.021638e+05 1.021638e+05 1.021638e+05 1.019288e+05 1.019288e+05 1.019171e+05 1.018773e+05 1.018773e+05 1.018919e+05 1.017959e+05 1.018025e+05 1.018025e+05 1.022876e+05 1.022850e+05 1.017491e+05 1.017491e+05 1.017491e+05 1.022757e+05 1.017858e+05 1.017858e+05 1.017754e+05 1.017754e+05 1.018183e+05 1.018183e+05 1.018222e+05 1.018222e+05 1.018294e+05 1.018294e+05 1.018325e+05 1.018512e+05 1.018527e+05 1.017354e+05 1.021159e+05 1.021159e+05 1.021159e+05 1.017629e+05 1.019625e+05 1.017754e+05 1.019072e+05 1.022734e+05 1.017369e+05 1.020049e+05 1.020049e+05 1.022892e+05 1.022850e+05 1.022850e+05 1.018687e+05 1.018720e+05 1.022618e+05 1.022618e+05 1.022497e+05 1.017797e+05 1.017797e+05 1.017649e+05 1.017907e+05 1.021108e+05 1.018185e+05 1.022788e+05 1.022671e+05 1.022671e+05 1.017379e+05 1.017508e+05 1.017371e+05 1.022284e+05 1.022252e+05 1.018126e+05 1.018126e+05 1.017540e+05 1.017540e+05 1.017816e+05 1.018315e+05 1.018353e+05 1.018353e+05 1.021733e+05 1.017555e+05 1.017596e+05 1.017604e+05 1.017604e+05 1.017604e+05 1.017589e+05 1.017589e+05 1.019537e+05 1.021374e+05 1.022113e+05 1.020619e+05 1.020619e+05 1.018439e+05 1.018439e+05 1.018495e+05 1.018424e+05 1.018424e+05 1.022662e+05 1.022662e+05 1.022662e+05 1.022623e+05 1.022623e+05 1.018995e+05 1.018995e+05 1.019134e+05 1.019692e+05 1.019604e+05 1.019604e+05 1.019604e+05 1.017663e+05 1.019915e+05 1.019995e+05 1.019995e+05 1.017448e+05 1.017483e+05 1.018507e+05 1.018263e+05 1.022002e+05 1.018900e+05 1.018743e+05 1.022850e+05 1.020858e+05 1.020858e+05 1.020742e+05 1.020742e+05 1.021000e+05 1.021022e+05 1.022221e+05 1.018041e+05 1.017752e+05 1.017752e+05 1.017802e+05 1.018534e+05 1.021249e+05 1.018531e+05 1.017645e+05 1.017712e+05 1.022419e+05 1.021731e+05 1.021731e+05 1.021835e+05 1.021835e+05 1.017686e+05 1.017986e+05 1.017986e+05 1.017986e+05 1.017614e+05 1.021226e+05 1.018058e+05 1.017987e+05 1.018132e+05 1.017660e+05 1.018307e+05 1.017839e+05 1.017901e+05 1.018219e+05 1.018219e+05 1.018219e+05 1.020032e+05 1.017704e+05 1.018372e+05 1.020897e+05 1.020897e+05 1.020761e+05 1.018598e+05 1.017946e+05 1.017946e+05 1.021730e+05 1.019267e+05 1.019375e+05 1.018359e+05 1.018704e+05 1.018704e+05 1.018776e+05 1.018611e+05 1.018223e+05 1.018223e+05 1.018233e+05 1.018159e+05 1.018159e+05 1.018159e+05 1.018652e+05 1.017809e+05 1.018568e+05 1.017886e+05 1.017995e+05 1.017995e+05 1.017871e+05 1.017840e+05 1.020344e+05 1.020344e+05 1.021153e+05 1.017810e+05 1.017810e+05 1.017810e+05 1.017911e+05 1.022576e+05 1.018934e+05 1.022122e+05 1.021989e+05 1.018094e+05 1.019959e+05 1.020074e+05 1.022089e+05 1.018847e+05 1.018900e+05 1.018652e+05 1.019037e+05 1.021150e+05 1.021150e+05 1.021150e+05 1.022794e+05 1.022718e+05 1.021078e+05 1.021984e+05 1.022794e+05 1.018130e+05 1.018475e+05 1.018111e+05 1.019606e+05 1.019544e+05 1.018662e+05 1.018300e+05 1.018300e+05 1.018300e+05 1.018003e+05 1.021853e+05 1.021853e+05 1.022541e+05 1.022541e+05 1.019016e+05 1.018345e+05 1.021808e+05 1.018276e+05 1.018276e+05 1.018276e+05 1.017840e+05 1.021577e+05 1.021577e+05 1.018218e+05 1.018612e+05 1.019762e+05 1.018122e+05 1.021309e+05 1.021309e+05 1.021309e+05 1.018518e+05 1.018518e+05 1.018518e+05 1.022687e+05 1.018746e+05 1.022299e+05 1.022299e+05 1.018735e+05 1.018735e+05 1.018735e+05 1.018735e+05 1.018028e+05 1.018028e+05 1.018028e+05 1.020739e+05 1.020739e+05 1.020739e+05 1.021162e+05 1.018193e+05 1.018297e+05 1.018601e+05 1.018601e+05 1.018601e+05 1.018074e+05 1.018196e+05 1.018196e+05 1.020395e+05 1.020129e+05 1.022541e+05 1.018426e+05 1.018474e+05 1.018736e+05 1.018141e+05 1.019366e+05 1.018038e+05 1.018455e+05 1.018455e+05 1.018539e+05 1.021598e+05 1.019011e+05 1.018069e+05 1.018167e+05 1.018375e+05 1.019332e+05 1.018256e+05 1.018256e+05 1.020274e+05 1.020546e+05 1.020656e+05 1.018155e+05 1.018957e+05 1.022109e+05 1.018272e+05 1.018272e+05 1.018660e+05 1.018660e+05 1.021035e+05 1.021035e+05 1.021035e+05 1.020770e+05 1.020770e+05 1.019418e+05 1.021265e+05 1.021208e+05 1.021208e+05 1.018421e+05 1.019053e+05 1.019215e+05 1.019851e+05 1.019851e+05 1.020023e+05 1.020852e+05 1.018553e+05 1.018553e+05 1.020425e+05 1.020339e+05 1.018736e+05 1.018736e+05 1.018365e+05 1.018438e+05 1.018438e+05 1.018438e+05 1.018743e+05 1.018215e+05 1.018394e+05 1.018522e+05 1.018522e+05 1.018522e+05 1.018692e+05 1.018800e+05 1.019391e+05 1.018652e+05 1.018433e+05 1.019979e+05 1.019979e+05 1.019979e+05 1.019812e+05 1.018352e+05 1.020984e+05 1.020984e+05 1.020984e+05 1.020174e+05 1.018283e+05 1.020520e+05 1.020520e+05 1.018899e+05 1.018761e+05 1.018761e+05 1.018761e+05 1.018516e+05 1.018516e+05 1.021635e+05 1.021375e+05 1.021375e+05 1.018487e+05 1.018528e+05 1.018528e+05 1.019830e+05 1.018653e+05 1.018653e+05 1.018653e+05 1.018593e+05 1.018593e+05 1.018593e+05 1.018858e+05 1.018858e+05 1.019038e+05 1.018171e+05 1.018691e+05 1.018691e+05 1.019086e+05 1.019338e+05 1.019338e+05 1.019296e+05 1.019296e+05 1.020329e+05 1.018533e+05 1.018614e+05 1.018614e+05 1.018714e+05 1.018714e+05 1.018706e+05 1.018706e+05 1.019053e+05 1.019627e+05 1.019627e+05 1.019491e+05 1.019491e+05 1.018710e+05 1.019657e+05 1.020930e+05 1.020900e+05 1.020900e+05 1.019676e+05 1.019277e+05 1.018724e+05 1.020843e+05 1.020843e+05 1.019785e+05 1.021017e+05 1.021017e+05 1.018770e+05 1.018770e+05 1.020008e+05 1.020488e+05 1.020488e+05 1.020488e+05 1.020421e+05 1.020421e+05 1.020623e+05 1.019603e+05 1.019603e+05 1.020337e+05 1.020337e+05 1.020084e+05 1.018967e+05 1.019104e+05 1.018812e+05 1.018712e+05 1.020649e+05 1.020649e+05 1.018686e+05 1.018686e+05 1.019236e+05 1.019236e+05 1.018698e+05 1.019482e+05 1.019482e+05 1.019254e+05 1.018786e+05 1.018786e+05 1.020006e+05 1.020006e+05 1.019868e+05 1.019636e+05 1.019636e+05 1.018997e+05 1.018997e+05 1.019298e+05 1.019298e+05 1.019221e+05 1.019121e+05 1.019121e+05 1.018808e+05 1.018825e+05 1.019155e+05 1.019605e+05 1.019651e+05 1.020485e+05 1.020459e+05 1.020112e+05 1.020112e+05 1.020483e+05 1.019090e+05 1.019090e+05 1.018915e+05 1.019593e+05 1.020532e+05 1.020659e+05 1.020659e+05 1.019368e+05 1.019368e+05 1.020076e+05 1.020447e+05 1.019313e+05 1.019313e+05 1.020005e+05 1.020005e+05 1.018890e+05 1.018943e+05 1.018943e+05 1.018943e+05 1.018918e+05 1.018918e+05 1.020129e+05 1.019953e+05 1.019719e+05 1.019719e+05 1.019857e+05 1.019857e+05 1.020050e+05 1.019130e+05 1.020477e+05 1.020081e+05 1.019697e+05 1.019479e+05 1.019900e+05 1.019670e+05 1.019852e+05 1.019356e+05 1.019497e+05 1.019464e+05 1.019705e+05 1.019633e+05 1.019853e+05 1.019772e+05 1.019441e+05 1.019441e+05 1.019504e+05 1.019446e+05 1.019648e+05 1.019417e+05 1.019429e+05 1.019592e+05 1.019592e+05 1.019605e+05 1.019605e+05 1.019220e+05 1.019220e+05 1.019397e+05 1.019409e+05 1.019409e+05 1.019409e+05 1.019211e+05 1.019211e+05 1.019105e+05 1.019105e+05 1.019105e+05 1.019035e+05 1.019035e+05 1.018895e+05 1.018967e+05 1.019170e+05 1.018895e+05 1.018895e+05 1.018834e+05 1.018945e+05 1.019094e+05 1.019042e+05 1.019121e+05 1.019118e+05 1.019280e+05 1.019205e+05 1.019095e+05 1.019095e+05 1.019125e+05 1.018925e+05 1.019170e+05 1.020573e+05 1.019979e+05 1.019378e+05 1.020471e+05 1.020471e+05 1.020258e+05 1.020180e+05 1.020258e+05 1.019388e+05 1.020015e+05 1.019163e+05 1.019112e+05 1.019156e+05 1.019156e+05 1.019174e+05 1.023048e+05 1.023048e+05 1.023044e+05 1.023009e+05 1.023087e+05 1.022950e+05 1.022922e+05 1.022874e+05 1.022909e+05 1.022748e+05 1.022785e+05 1.022809e+05 1.022713e+05 1.022673e+05 1.022637e+05 1.022599e+05 1.022474e+05 1.022385e+05 1.022356e+05 1.022353e+05 1.022156e+05 1.022123e+05 1.022034e+05 1.021943e+05 1.021900e+05 1.021821e+05 1.021815e+05 1.021693e+05 1.021634e+05 1.021579e+05 1.021516e+05 1.021494e+05 1.021409e+05 1.021281e+05 1.021256e+05 1.021089e+05 1.020993e+05 1.020923e+05 1.020841e+05 1.020776e+05 1.020705e+05 1.020657e+05 1.020560e+05 1.020494e+05 1.020401e+05 1.020354e+05 1.020322e+05 1.020219e+05 1.020170e+05 1.020086e+05 1.019987e+05 1.019924e+05 1.019857e+05 1.019762e+05 1.019729e+05 1.019576e+05 1.019437e+05 1.019371e+05 1.019292e+05 1.019215e+05 1.019145e+05 1.019033e+05 1.018924e+05 1.018871e+05 1.018814e+05 1.018718e+05 1.018616e+05 1.018556e+05 1.018487e+05 1.018386e+05 1.018285e+05 1.018233e+05 1.018199e+05 1.018120e+05 1.018038e+05 1.017988e+05 1.017935e+05 1.017894e+05 1.017861e+05 1.017770e+05 1.017720e+05 1.017657e+05 1.017592e+05 1.017546e+05 1.017456e+05 1.017412e+05 1.017387e+05 1.017357e+05 1.017283e+05 1.017253e+05 1.017231e+05 1.017197e+05 1.017213e+05 1.017157e+05 1.017159e+05 1.017162e+05 1.017163e+05 1.017140e+05 1.017120e+05 1.017100e+05 1.017065e+05 1.017053e+05 1.017049e+05 1.016995e+05 1.016918e+05 1.016914e+05 1.016876e+05 1.016813e+05 1.016863e+05 1.016802e+05 1.016837e+05 1.016849e+05 1.016857e+05 1.016875e+05 1.016846e+05 1.016866e+05 1.016883e+05 1.016841e+05 1.016907e+05 1.016922e+05 1.016903e+05 1.016902e+05 1.016949e+05 1.016925e+05 1.016964e+05 1.016977e+05 1.016918e+05 1.016951e+05 1.017005e+05 1.016980e+05 1.017000e+05 1.017043e+05 1.016971e+05 1.017099e+05 1.017083e+05 1.017142e+05 1.017126e+05 1.017152e+05 1.017201e+05 1.017161e+05 1.017242e+05 1.017301e+05 1.017282e+05 1.017296e+05 1.017349e+05 1.017286e+05 1.017376e+05 1.017350e+05 1.017422e+05 1.017365e+05 1.017418e+05 1.017446e+05 1.017400e+05 1.017377e+05 1.017422e+05 1.017469e+05 1.017542e+05 1.017580e+05 1.017531e+05 1.017577e+05 1.017668e+05 1.017751e+05 1.017734e+05 1.017704e+05 1.017750e+05 1.017838e+05 1.017884e+05 1.017766e+05 1.017887e+05 1.017850e+05 1.017969e+05 1.017962e+05 1.018006e+05 1.018076e+05 1.018074e+05 1.018117e+05 1.018168e+05 1.018189e+05 1.018235e+05 1.018309e+05 1.018271e+05 1.019086e+05 1.019086e+05 1.019086e+05 1.018997e+05 1.018997e+05 1.018997e+05 1.019204e+05 1.019011e+05 1.019159e+05 1.019085e+05 1.019595e+05 1.019595e+05 1.019595e+05 1.019416e+05 1.019202e+05 1.019202e+05 1.019202e+05 1.019078e+05 1.019249e+05 1.021786e+05 1.021786e+05 1.021786e+05 1.021831e+05 1.021645e+05 1.021645e+05 1.021645e+05 1.021450e+05 1.017877e+05 1.017877e+05 1.017877e+05 1.017885e+05 1.017961e+05 1.018005e+05 1.018021e+05 1.018021e+05 1.018021e+05 1.017892e+05 1.017892e+05 1.020800e+05 1.020800e+05 1.020800e+05 1.020808e+05 1.017956e+05 1.017956e+05 1.017956e+05 1.017814e+05 1.017814e+05 1.022907e+05 1.022907e+05 1.022907e+05 1.018147e+05 1.018147e+05 1.018147e+05 1.018252e+05 1.017835e+05 1.017835e+05 1.017835e+05 1.020045e+05 1.020045e+05 1.020045e+05 1.019982e+05 1.017050e+05 1.017050e+05 1.017132e+05 1.017132e+05 1.018264e+05 1.018264e+05 1.018318e+05 1.020245e+05 1.020245e+05 1.020245e+05 1.020353e+05 1.020353e+05 1.017905e+05 1.017905e+05 1.017905e+05 1.017911e+05 1.017911e+05 1.019415e+05 1.019415e+05 1.019415e+05 1.019306e+05 1.019306e+05 1.021794e+05 1.021794e+05 1.018601e+05 1.018601e+05 1.018601e+05 1.018707e+05 1.017610e+05 1.017610e+05 1.017610e+05 1.017531e+05 1.017668e+05 1.018600e+05 1.018600e+05 1.018600e+05 1.018253e+05 1.018253e+05 1.018229e+05 1.021089e+05 1.021106e+05 1.021106e+05 1.018076e+05 1.018070e+05 1.018070e+05 1.017454e+05 1.016964e+05 1.017035e+05 1.019406e+05 1.019506e+05 1.019506e+05 1.019506e+05 1.019463e+05 1.019338e+05 1.019596e+05 1.019596e+05 1.019596e+05 1.019701e+05 1.019701e+05 1.019003e+05 1.019003e+05 1.019003e+05 1.019022e+05 1.018609e+05 1.018609e+05 1.018609e+05 1.018642e+05 1.021726e+05 1.021802e+05 1.021633e+05 1.021978e+05 1.021978e+05 1.018646e+05 1.018646e+05 1.018646e+05 1.018788e+05 1.019800e+05 1.019800e+05 1.019800e+05 1.020030e+05 1.020030e+05 1.019924e+05 1.018112e+05 1.018112e+05 1.018112e+05 1.018190e+05 1.017842e+05 1.017842e+05 1.017842e+05 1.017849e+05 1.017975e+05 1.019206e+05 1.019206e+05 1.019206e+05 1.019349e+05 1.018652e+05 1.018611e+05 1.017719e+05 1.017719e+05 1.017719e+05 1.017748e+05 1.017851e+05 1.017851e+05 1.017851e+05 1.017707e+05 1.020307e+05 1.020307e+05 1.020307e+05 1.020351e+05 1.020351e+05 1.017639e+05 1.017639e+05 1.017639e+05 1.017655e+05 1.019777e+05 1.019777e+05 1.019777e+05 1.019773e+05 1.020360e+05 1.020360e+05 1.020360e+05 1.020342e+05 1.017135e+05 1.017135e+05 1.017010e+05 1.017653e+05 1.017653e+05 1.017891e+05 1.017891e+05 1.017891e+05 1.017436e+05 1.017436e+05 1.017436e+05 1.017322e+05 1.018088e+05 1.018088e+05 1.018088e+05 1.018124e+05 1.018124e+05 1.021997e+05 1.021997e+05 1.021997e+05 1.021886e+05 1.021886e+05 1.017663e+05 1.019366e+05 1.019366e+05 1.019405e+05 1.018310e+05 1.018310e+05 1.018310e+05 1.018292e+05 1.017493e+05 1.017493e+05 1.017572e+05 1.017572e+05 1.020760e+05 1.020760e+05 1.020862e+05 1.020130e+05 1.020130e+05 1.017659e+05 1.017659e+05 1.017722e+05 1.017722e+05 1.019867e+05 1.019867e+05 1.019867e+05 1.019896e+05 1.017631e+05 1.017729e+05 1.018478e+05 1.018478e+05 1.018478e+05 1.018362e+05 1.018922e+05 1.018922e+05 1.018922e+05 1.018879e+05 1.018879e+05 1.018124e+05 1.018124e+05 1.018124e+05 1.018176e+05 1.018176e+05 1.018597e+05 1.018694e+05 1.022706e+05 1.022706e+05 1.022706e+05 1.022730e+05 1.017891e+05 1.017891e+05 1.017891e+05 1.017805e+05 1.017805e+05 1.017967e+05 1.017968e+05 1.018234e+05 1.018234e+05 1.018234e+05 1.018380e+05 1.018380e+05 1.017888e+05 1.017782e+05 1.017782e+05 1.017586e+05 1.017586e+05 1.017586e+05 1.017706e+05 1.017706e+05 1.017677e+05 1.017677e+05 1.017677e+05 1.017775e+05 1.017775e+05 1.017967e+05 1.017967e+05 1.