<?xml version="1.0"?>
 <VTKFile type="UnstructuredGrid" version="1.0" byte_order="LittleEndian" header_type="UInt64">
  <UnstructuredGrid>
    <FieldData>
     <DataArray type="Float64" Name="TimeValue" NumberOfTuples="1" format="ascii">
0.000549985
     </DataArray>
    </FieldData>
   <Piece NumberOfPoints="3632" NumberOfCells="3379">
    <PointData>
     <DataArray type="Float64" Name="pointP" format="ascii">
1.258409e+05 1.258409e+05 1.257770e+05 1.257175e+05 1.256555e+05 1.255829e+05 1.254498e+05 1.252694e+05 1.251090e+05 1.249725e+05 1.248641e+05 1.247622e+05 1.246308e+05 1.244552e+05 1.241475e+05 1.238297e+05 1.236397e+05 1.235465e+05 1.234096e+05 1.232281e+05 1.230468e+05 1.229266e+05 1.227461e+05 1.225313e+05 1.222797e+05 1.219707e+05 1.217346e+05 1.214005e+05 1.211121e+05 1.207914e+05 1.206226e+05 1.205437e+05 1.203820e+05 1.200818e+05 1.197403e+05 1.194220e+05 1.191406e+05 1.188085e+05 1.183904e+05 1.180310e+05 1.176735e+05 1.173866e+05 1.170484e+05 1.168086e+05 1.165577e+05 1.163669e+05 1.161788e+05 1.159227e+05 1.155974e+05 1.152888e+05 1.149166e+05 1.145280e+05 1.141005e+05 1.137200e+05 1.133070e+05 1.129724e+05 1.126362e+05 1.123458e+05 1.120399e+05 1.116967e+05 1.113104e+05 1.109207e+05 1.105360e+05 1.101975e+05 1.098376e+05 1.094652e+05 1.090495e+05 1.087085e+05 1.083497e+05 1.080064e+05 1.076486e+05 1.073002e+05 1.069268e+05 1.065512e+05 1.061378e+05 1.057762e+05 1.053953e+05 1.050233e+05 1.046526e+05 1.043224e+05 1.039241e+05 1.035824e+05 1.031992e+05 1.028241e+05 1.024878e+05 1.021347e+05 1.017841e+05 1.014237e+05 1.010678e+05 1.007079e+05 1.003562e+05 1.000075e+05 9.962146e+04 9.929309e+04 9.893959e+04 9.859287e+04 9.825191e+04 9.794168e+04 9.758245e+04 9.722101e+04 9.691939e+04 9.657148e+04 9.623399e+04 9.587098e+04 9.554727e+04 9.520489e+04 9.489808e+04 9.455651e+04 9.422938e+04 9.394478e+04 9.365295e+04 9.337149e+04 9.310781e+04 9.278699e+04 9.252390e+04 9.218999e+04 9.189530e+04 9.159602e+04 9.126795e+04 9.096822e+04 9.071886e+04 9.042924e+04 9.013594e+04 8.984756e+04 8.953922e+04 8.924841e+04 8.900081e+04 8.874391e+04 8.854157e+04 8.833658e+04 8.814242e+04 8.790757e+04 8.768997e+04 8.743725e+04 8.722482e+04 8.698507e+04 8.684008e+04 8.669327e+04 8.651989e+04 8.635040e+04 8.613597e+04 8.589476e+04 8.565885e+04 8.542044e+04 8.519895e+04 8.499953e+04 8.481973e+04 8.469453e+04 8.460656e+04 8.451158e+04 8.438431e+04 8.420696e+04 8.402867e+04 8.359065e+04 8.415459e+04 8.359444e+04 8.335130e+04 8.315423e+04 8.303043e+04 8.290934e+04 8.277623e+04 8.264396e+04 8.254275e+04 8.246146e+04 8.239394e+04 8.232020e+04 8.219553e+04 8.207775e+04 8.190698e+04 8.173443e+04 8.158756e+04 8.153475e+04 8.148632e+04 8.145097e+04 8.140766e+04 8.136115e+04 8.130256e+04 8.125484e+04 8.121545e+04 8.114103e+04 8.105160e+04 1.013250e+05 1.013250e+05 1.013250e+05 1.013250e+05 1.013250e+05 1.013250e+05 1.013250e+05 1.013250e+05 1.013250e+05 1.013250e+05 1.013250e+05 1.013250e+05 1.013250e+05 1.013250e+05 1.013250e+05 1.013250e+05 1.013250e+05 1.013250e+05 1.013250e+05 1.142345e+05 1.142345e+05 1.142345e+05 1.101546e+05 1.220587e+05 1.220587e+05 1.220587e+05 1.180523e+05 9.885654e+04 9.885654e+04 9.885654e+04 9.923082e+04 9.958774e+04 9.967933e+04 8.512836e+04 8.512836e+04 8.512836e+04 8.522394e+04 8.522394e+04 1.183972e+05 1.183972e+05 1.183972e+05 1.181759e+05 8.356484e+04 8.356484e+04 8.356484e+04 8.363552e+04 8.363552e+04 1.256991e+05 1.256991e+05 1.256991e+05 1.064048e+05 1.064048e+05 1.064048e+05 1.066558e+05 1.032450e+05 1.032450e+05 1.032450e+05 1.154239e+05 1.154239e+05 1.154239e+05 1.151172e+05 8.831845e+04 8.831845e+04 8.831680e+04 8.831680e+04 1.074673e+05 1.074673e+05 1.078020e+05 1.162751e+05 1.162751e+05 1.162751e+05 1.162442e+05 1.162442e+05 8.267434e+04 8.267434e+04 8.267434e+04 8.275992e+04 8.275992e+04 1.013250e+05 1.013250e+05 1.013250e+05 1.013250e+05 1.013250e+05 1.225451e+05 1.225451e+05 1.086494e+05 1.086494e+05 1.086494e+05 1.088986e+05 1.028213e+05 1.028213e+05 1.028213e+05 1.027198e+05 1.028445e+05 1.089801e+05 1.089801e+05 1.089801e+05 1.068956e+05 1.068956e+05 1.070915e+05 1.194220e+05 1.198309e+05 1.198309e+05 8.145097e+04 8.146975e+04 8.146975e+04 1.023719e+05 8.953922e+04 8.980178e+04 1.013250e+05 1.013250e+05 1.013250e+05 1.013250e+05 1.013250e+05 1.013250e+05 1.013250e+05 1.013250e+05 1.013250e+05 1.013250e+05 1.013250e+05 1.013250e+05 1.013250e+05 1.013250e+05 1.013250e+05 1.012469e+05 1.012469e+05 1.012469e+05 1.012901e+05 1.050951e+05 1.032111e+05 1.019621e+05 1.128844e+05 1.128844e+05 1.030235e+05 1.030235e+05 1.030235e+05 1.029945e+05 1.138144e+05 1.138144e+05 1.138144e+05 1.148191e+05 1.148191e+05 1.133845e+05 8.990293e+04 8.990293e+04 8.990293e+04 9.055633e+04 9.144253e+04 9.144253e+04 9.144253e+04 9.177208e+04 9.199243e+04 1.105904e+05 1.105904e+05 1.105904e+05 1.101517e+05 8.074170e+04 8.091690e+04 9.583492e+04 9.583492e+04 9.583492e+04 9.628779e+04 8.667299e+04 8.667299e+04 8.667299e+04 8.645131e+04 1.161863e+05 1.161863e+05 1.161863e+05 1.166420e+05 1.166420e+05 8.553484e+04 8.553484e+04 8.553484e+04 8.557882e+04 1.137592e+05 1.137592e+05 1.137592e+05 1.137496e+05 1.166647e+05 1.166647e+05 1.166647e+05 1.165673e+05 9.014323e+04 9.014323e+04 9.013521e+04 1.031951e+05 1.031951e+05 1.043387e+05 1.043387e+05 1.043387e+05 1.011983e+05 1.011983e+05 1.011983e+05 1.009140e+05 8.138304e+04 8.138304e+04 8.138304e+04 8.133743e+04 8.133743e+04 1.225265e+05 1.225265e+05 1.225265e+05 1.223257e+05 1.223257e+05 1.034036e+05 1.124745e+05 1.124745e+05 1.127589e+05 8.118549e+04 8.118549e+04 8.118549e+04 8.115002e+04 8.231912e+04 8.231912e+04 8.268186e+04 8.268186e+04 1.181845e+05 1.181845e+05 1.185249e+05 1.157140e+05 1.157140e+05 8.294686e+04 8.294686e+04 8.302171e+04 8.302171e+04 1.143494e+05 1.143494e+05 1.143494e+05 1.141514e+05 1.027613e+05 1.026723e+05 1.078994e+05 1.078994e+05 1.078994e+05 1.074891e+05 1.102728e+05 1.102728e+05 1.102728e+05 1.098011e+05 1.098011e+05 8.167064e+04 8.167064e+04 8.167064e+04 8.154631e+04 8.154631e+04 1.086851e+05 1.091285e+05 1.249500e+05 1.249500e+05 1.249500e+05 1.251306e+05 8.313792e+04 8.313792e+04 8.313792e+04 8.318430e+04 8.318430e+04 8.302169e+04 8.321810e+04 1.046926e+05 1.046926e+05 1.046926e+05 1.045375e+05 1.045375e+05 9.987396e+04 9.991849e+04 9.991849e+04 8.775976e+04 8.775976e+04 8.775976e+04 8.767079e+04 8.767079e+04 8.939317e+04 8.939317e+04 8.939317e+04 8.871789e+04 8.871789e+04 8.377450e+04 8.377450e+04 8.386804e+04 8.386804e+04 1.046706e+05 1.046706e+05 1.044237e+05 8.392278e+04 8.392278e+04 8.357295e+04 8.357295e+04 8.808524e+04 8.808524e+04 8.808524e+04 8.896749e+04 1.009239e+05 1.009239e+05 1.009239e+05 1.010449e+05 1.010449e+05 1.013948e+05 1.020617e+05 1.013253e+05 1.013250e+05 1.013250e+05 1.013250e+05 1.013250e+05 1.013250e+05 1.013250e+05 1.013250e+05 1.013250e+05 1.013250e+05 1.013250e+05 1.013250e+05 1.013250e+05 1.013250e+05 1.013250e+05 1.013250e+05 1.013250e+05 1.013250e+05 1.013250e+05 1.013250e+05 1.013250e+05 1.013250e+05 1.013250e+05 1.013250e+05 1.013250e+05 1.013250e+05 1.013250e+05 1.013250e+05 1.013250e+05 1.013250e+05 1.013250e+05 1.013250e+05 1.034236e+05 1.034236e+05 1.034236e+05 1.022701e+05 9.890127e+04 9.890127e+04 9.890127e+04 9.703807e+04 9.703807e+04 9.703807e+04 1.064266e+05 1.064266e+05 1.064266e+05 1.170156e+05 1.170156e+05 1.176803e+05 8.765164e+04 9.107462e+04 9.107462e+04 1.212566e+05 1.212566e+05 1.212566e+05 1.213718e+05 1.213718e+05 1.030938e+05 1.030938e+05 8.118582e+04 8.112061e+04 8.091690e+04 1.243340e+05 1.243340e+05 1.243340e+05 1.244495e+05 9.286700e+04 9.286700e+04 9.286700e+04 1.029927e+05 1.030698e+05 1.028296e+05 9.672103e+04 9.672103e+04 9.672103e+04 8.788951e+04 8.788951e+04 8.788951e+04 8.775027e+04 8.757473e+04 1.041296e+05 1.041296e+05 1.041296e+05 1.245342e+05 1.245342e+05 1.245342e+05 1.247370e+05 1.110804e+05 1.110804e+05 1.110804e+05 1.111466e+05 1.242986e+05 1.242986e+05 1.242986e+05 1.075946e+05 9.911593e+04 9.911593e+04 9.965925e+04 9.965925e+04 9.965925e+04 9.956921e+04 9.974061e+04 8.134516e+04 8.134516e+04 8.136874e+04 8.122139e+04 8.124070e+04 1.157425e+05 1.157425e+05 8.963126e+04 8.963126e+04 8.963126e+04 8.981372e+04 8.239111e+04 8.239111e+04 8.239111e+04 8.243642e+04 1.101975e+05 1.104442e+05 1.104442e+05 9.528329e+04 9.528329e+04 9.528329e+04 9.520960e+04 8.332636e+04 9.708308e+04 9.708308e+04 9.718315e+04 1.171195e+05 1.171195e+05 1.171195e+05 1.227204e+05 1.227204e+05 1.213522e+05 1.213522e+05 1.213522e+05 1.213018e+05 1.237173e+05 1.237173e+05 1.237173e+05 1.235847e+05 1.235847e+05 1.234594e+05 1.200997e+05 1.200997e+05 9.919390e+04 8.738123e+04 8.738123e+04 8.762584e+04 9.544705e+04 1.260443e+05 1.261440e+05 1.260443e+05 1.260443e+05 1.121625e+05 1.121625e+05 1.121625e+05 1.120586e+05 1.120586e+05 1.190497e+05 1.190497e+05 1.186812e+05 1.186812e+05 1.160528e+05 1.160528e+05 1.160528e+05 1.165539e+05 1.165539e+05 1.022894e+05 1.022894e+05 1.022894e+05 1.029192e+05 1.029192e+05 1.251257e+05 1.251257e+05 1.251257e+05 1.251330e+05 1.251330e+05 1.109467e+05 1.109467e+05 1.109467e+05 1.042068e+05 8.135459e+04 8.135459e+04 8.135459e+04 8.129957e+04 8.129957e+04 8.678128e+04 8.678128e+04 8.678128e+04 9.084841e+04 9.084841e+04 9.437518e+04 9.437518e+04 9.437518e+04 9.664982e+04 9.664982e+04 1.049411e+05 1.049411e+05 1.049411e+05 1.013941e+05 1.013941e+05 1.013941e+05 1.018838e+05 1.018838e+05 1.011830e+05 1.012820e+05 1.013250e+05 1.013250e+05 1.013250e+05 1.013250e+05 1.013250e+05 1.013250e+05 1.013250e+05 1.013250e+05 1.013250e+05 1.013250e+05 1.013250e+05 1.013250e+05 1.013250e+05 1.013250e+05 1.013250e+05 1.013250e+05 1.013250e+05 1.013250e+05 1.013250e+05 1.013250e+05 1.013250e+05 1.013250e+05 1.233734e+05 1.233734e+05 1.233734e+05 1.209323e+05 1.237627e+05 9.496300e+04 9.496300e+04 9.496300e+04 9.450244e+04 8.547924e+04 8.833879e+04 8.116932e+04 8.116932e+04 8.116932e+04 8.115919e+04 1.134647e+05 1.134023e+05 1.132156e+05 9.987699e+04 9.987699e+04 9.980054e+04 8.246780e+04 8.316225e+04 8.316225e+04 8.323425e+04 8.330004e+04 8.781010e+04 8.790926e+04 8.784535e+04 9.425382e+04 9.425382e+04 9.425382e+04 9.418767e+04 8.468234e+04 8.468234e+04 8.468234e+04 8.460341e+04 9.988376e+04 8.481973e+04 8.493450e+04 8.493450e+04 1.082785e+05 1.082785e+05 1.082785e+05 9.389372e+04 1.206078e+05 1.206078e+05 9.595778e+04 9.595778e+04 9.595778e+04 1.106781e+05 8.275054e+04 8.275054e+04 9.492381e+04 9.342965e+04 9.342965e+04 9.342965e+04 9.332326e+04 8.847224e+04 8.154089e+04 8.154089e+04 8.163668e+04 8.335130e+04 1.006191e+05 1.006191e+05 8.592531e+04 8.592531e+04 8.592531e+04 8.575922e+04 1.187224e+05 1.191383e+05 1.191383e+05 1.092352e+05 8.451531e+04 8.451531e+04 8.445327e+04 1.203674e+05 1.203674e+05 1.193076e+05 1.135550e+05 9.096822e+04 9.107221e+04 9.107221e+04 1.249131e+05 1.249131e+05 9.033341e+04 1.218206e+05 1.218206e+05 9.213827e+04 9.213827e+04 9.213827e+04 9.179983e+04 8.733887e+04 8.733887e+04 8.914311e+04 8.914311e+04 8.235193e+04 8.150990e+04 1.062703e+05 1.059555e+05 8.519895e+04 8.532776e+04 8.532776e+04 1.014237e+05 1.017294e+05 1.017294e+05 8.199808e+04 8.199808e+04 8.186992e+04 8.186992e+04 1.167843e+05 1.021213e+05 1.251485e+05 1.251485e+05 1.253250e+05 1.255270e+05 1.255270e+05 1.176735e+05 1.178941e+05 1.111943e+05 1.111943e+05 1.111943e+05 1.231426e+05 1.231426e+05 1.231426e+05 1.230670e+05 9.154066e+04 9.154066e+04 1.119208e+05 8.224573e+04 8.224573e+04 9.365982e+04 8.849463e+04 9.651893e+04 9.651893e+04 9.651893e+04 8.416587e+04 8.416587e+04 1.170484e+05 1.173025e+05 1.173025e+05 1.046526e+05 1.049053e+05 1.035824e+05 1.037820e+05 8.142484e+04 1.240704e+05 1.240704e+05 8.684398e+04 8.684398e+04 8.684398e+04 8.677931e+04 1.234990e+05 8.869421e+04 9.300529e+04 9.300529e+04 9.269988e+04 9.084845e+04 9.084845e+04 8.268118e+04 8.268118e+04 8.260187e+04 1.094652e+05 1.097670e+05 1.097670e+05 9.735902e+04 1.247532e+05 1.247532e+05 1.246913e+05 1.246913e+05 9.836558e+04 9.836558e+04 9.836558e+04 8.630608e+04 8.630608e+04 8.630608e+04 9.896642e+04 9.896642e+04 1.199507e+05 1.243001e+05 1.239525e+05 1.238985e+05 1.182689e+05 1.248924e+05 8.312098e+04 1.052549e+05 1.057428e+05 8.660972e+04 8.660972e+04 1.145995e+05 1.124561e+05 8.712944e+04 8.698393e+04 9.791273e+04 9.791273e+04 1.258409e+05 1.258781e+05 1.257364e+05 1.257364e+05 1.257364e+05 1.256789e+05 1.206264e+05 1.203965e+05 1.206993e+05 1.208883e+05 1.046957e+05 1.046957e+05 1.045977e+05 1.186982e+05 8.459439e+04 8.570362e+04 1.140478e+05 1.129929e+05 1.129929e+05 1.129929e+05 9.671716e+04 9.253824e+04 9.253824e+04 9.253824e+04 1.259697e+05 1.207060e+05 1.246505e+05 1.245426e+05 9.045434e+04 1.099725e+05 1.256914e+05 1.256923e+05 8.235200e+04 8.230521e+04 8.230521e+04 1.078922e+05 1.113801e+05 8.423040e+04 8.292126e+04 1.203100e+05 1.201186e+05 1.201186e+05 8.502595e+04 8.502595e+04 8.500049e+04 8.500049e+04 9.173703e+04 1.150861e+05 1.014953e+05 8.112239e+04 1.220417e+05 1.216636e+05 9.632120e+04 1.011756e+05 1.012213e+05 1.012213e+05 1.210419e+05 1.210419e+05 1.213285e+05 1.213285e+05 9.571925e+04 9.608470e+04 8.954724e+04 8.954724e+04 8.949735e+04 9.390411e+04 9.390411e+04 9.357356e+04 9.357356e+04 9.075497e+04 9.075497e+04 8.123505e+04 1.248232e+05 1.248232e+05 1.194721e+05 1.194721e+05 1.194721e+05 1.165255e+05 8.432400e+04 8.432400e+04 8.688167e+04 8.688167e+04 8.289236e+04 8.303353e+04 1.176949e+05 1.232607e+05 8.126371e+04 8.205766e+04 8.205766e+04 9.811907e+04 9.811907e+04 9.855441e+04 8.248525e+04 8.248525e+04 8.879169e+04 8.879169e+04 1.225834e+05 1.225834e+05 1.055406e+05 1.251778e+05 1.115353e+05 1.115353e+05 1.112637e+05 1.016867e+05 1.021252e+05 8.340812e+04 8.518580e+04 9.117153e+04 1.242094e+05 8.132050e+04 9.322839e+04 9.322839e+04 9.322839e+04 1.003331e+05 1.003331e+05 1.003331e+05 1.038368e+05 9.497228e+04 9.497228e+04 9.497228e+04 9.448642e+04 1.254814e+05 1.253554e+05 1.145364e+05 1.146678e+05 1.146678e+05 9.926291e+04 9.926291e+04 9.926291e+04 1.165965e+05 8.472039e+04 1.237373e+05 1.258499e+05 1.258499e+05 1.258051e+05 1.005042e+05 8.812254e+04 8.812254e+04 8.816918e+04 9.111171e+04 9.111171e+04 1.255144e+05 8.157618e+04 9.144342e+04 9.172743e+04 8.740585e+04 1.048336e+05 1.053409e+05 1.230234e+05 9.684253e+04 9.684253e+04 9.684253e+04 8.895497e+04 8.895497e+04 1.174690e+05 1.177976e+05 1.177976e+05 1.223972e+05 1.219591e+05 8.566398e+04 8.578740e+04 1.230850e+05 1.230850e+05 1.230850e+05 1.229968e+05 8.609428e+04 8.609428e+04 8.634889e+04 8.183896e+04 8.183896e+04 1.068491e+05 1.068491e+05 1.068491e+05 1.063333e+05 9.125072e+04 1.238922e+05 1.238922e+05 1.238922e+05 1.235624e+05 1.236903e+05 8.710930e+04 8.710930e+04 8.699965e+04 8.699965e+04 8.538201e+04 1.185160e+05 1.185160e+05 9.851261e+04 9.818495e+04 1.169264e+05 1.169264e+05 8.669232e+04 8.677098e+04 1.210158e+05 1.261440e+05 1.260599e+05 9.055315e+04 9.056584e+04 1.251152e+05 9.507952e+04 9.507952e+04 9.505004e+04 9.505004e+04 9.037002e+04 9.698494e+04 9.740482e+04 1.140310e+05 9.216891e+04 8.637894e+04 8.655608e+04 1.193101e+05 1.193101e+05 1.258025e+05 1.258025e+05 1.258025e+05 1.258458e+05 8.222500e+04 8.222500e+04 8.212867e+04 1.059554e+05 1.061569e+05 1.126408e+05 8.123190e+04 8.150635e+04 8.150635e+04 8.150635e+04 8.143762e+04 9.394053e+04 1.257770e+05 1.223232e+05 1.218472e+05 1.218472e+05 8.398934e+04 8.398934e+04 8.398934e+04 8.374688e+04 1.257533e+05 1.257533e+05 1.210101e+05 1.210101e+05 1.208239e+05 1.153164e+05 1.108521e+05 1.241183e+05 9.244265e+04 9.207368e+04 1.259121e+05 1.260465e+05 1.025601e+05 1.120315e+05 1.120315e+05 1.120315e+05 1.127009e+05 8.412958e+04 9.544849e+04 9.548430e+04 8.238810e+04 8.252082e+04 9.990720e+04 1.002194e+05 8.852544e+04 8.852544e+04 1.134270e+05 9.006043e+04 9.006043e+04 9.045955e+04 8.926356e+04 8.926356e+04 9.419516e+04 8.487455e+04 8.487455e+04 8.466134e+04 1.211413e+05 1.241391e+05 1.241391e+05 9.317270e+04 9.330906e+04 9.330906e+04 1.080303e+05 8.337300e+04 8.146459e+04 8.134723e+04 1.203557e+05 1.203557e+05 1.012223e+05 9.112514e+04 1.075523e+05 1.077933e+05 1.063296e+05 1.208469e+05 1.208469e+05 1.136551e+05 1.136551e+05 1.136551e+05 1.058678e+05 1.062098e+05 1.170525e+05 1.173674e+05 1.173674e+05 1.015228e+05 1.012802e+05 1.012802e+05 1.094174e+05 1.046801e+05 1.053780e+05 1.226357e+05 1.243513e+05 1.243513e+05 1.243513e+05 1.242273e+05 8.293894e+04 8.689325e+04 9.377992e+04 9.406880e+04 8.832281e+04 8.832281e+04 8.832281e+04 9.730076e+04 9.730076e+04 9.730076e+04 9.737649e+04 9.791287e+04 8.361727e+04 8.526868e+04 8.500677e+04 9.599464e+04 9.599464e+04 8.475737e+04 8.489508e+04 8.464006e+04 8.464006e+04 9.498793e+04 8.998486e+04 8.998486e+04 8.962285e+04 1.151622e+05 1.151622e+05 1.145955e+05 9.235502e+04 9.235502e+04 1.035056e+05 8.640025e+04 8.640025e+04 8.603065e+04 8.603065e+04 8.189198e+04 8.189198e+04 8.189198e+04 1.224108e+05 1.223867e+05 1.223867e+05 8.106358e+04 8.106358e+04 8.106358e+04 8.122376e+04 8.235775e+04 9.665725e+04 1.231134e+05 1.231134e+05 1.227940e+05 1.215706e+05 1.215706e+05 1.215706e+05 1.114523e+05 1.114523e+05 1.108959e+05 1.091547e+05 1.091547e+05 1.097542e+05 8.269350e+04 8.280309e+04 8.280309e+04 1.261823e+05 1.261119e+05 9.146759e+04 9.146759e+04 9.146759e+04 1.253103e+05 8.485551e+04 8.485551e+04 8.523817e+04 8.523817e+04 8.225693e+04 8.225693e+04 8.208307e+04 8.208307e+04 8.132412e+04 8.132412e+04 8.155580e+04 1.073492e+05 1.074244e+05 9.189726e+04 1.200622e+05 1.200622e+05 1.200622e+05 9.735485e+04 1.130705e+05 8.406488e+04 1.104769e+05 1.252303e+05 8.886689e+04 1.148673e+05 1.148673e+05 1.258169e+05 1.259577e+05 1.259577e+05 1.085089e+05 1.088132e+05 1.249138e+05 1.249138e+05 1.246533e+05 8.428896e+04 8.428896e+04 9.845758e+04 1.014972e+05 1.196589e+05 1.048527e+05 1.253462e+05 1.253279e+05 1.253279e+05 9.108591e+04 9.592953e+04 9.453432e+04 1.241362e+05 1.240259e+05 8.240595e+04 8.240595e+04 8.892227e+04 8.892227e+04 1.020929e+05 8.175354e+04 8.148601e+04 8.148601e+04 1.220462e+05 9.050747e+04 9.100681e+04 9.444208e+04 9.444208e+04 9.444208e+04 9.385306e+04 9.385306e+04 1.124629e+05 1.207940e+05 1.234925e+05 1.173835e+05 1.173835e+05 1.064208e+05 1.064208e+05 1.068516e+05 1.059265e+05 1.059265e+05 1.260289e+05 1.260289e+05 1.260289e+05 1.259086e+05 1.259086e+05 1.100562e+05 1.100562e+05 1.107887e+05 1.134114e+05 1.126683e+05 1.126683e+05 1.126683e+05 8.663710e+04 1.141533e+05 1.142960e+05 1.142960e+05 8.740198e+04 8.740267e+04 8.112061e+04 8.198557e+04 1.232229e+05 1.093350e+05 1.086206e+05 1.261119e+05 1.184567e+05 1.184567e+05 1.184221e+05 1.184221e+05 1.189212e+05 1.192542e+05 1.239025e+05 8.304550e+04 8.594534e+04 8.594534e+04 8.557642e+04 8.115257e+04 1.202394e+05 8.109549e+04 9.791883e+04 8.737264e+04 1.242463e+05 1.223712e+05 1.223712e+05 1.226994e+05 1.226994e+05 9.346364e+04 1.010298e+05 1.010298e+05 1.010298e+05 9.159616e+04 1.202348e+05 1.034349e+05 8.353196e+04 8.323312e+04 9.010788e+04 8.164069e+04 8.472230e+04 8.420325e+04 8.233573e+04 8.233573e+04 8.233573e+04 1.150596e+05 9.223172e+04 8.170056e+04 1.188860e+05 1.188860e+05 1.188027e+05 1.067253e+05 9.817322e+04 9.817322e+04 1.222078e+05 1.113926e+05 1.120480e+05 8.175778e+04 1.066940e+05 1.066940e+05 1.073771e+05 8.088518e+04 8.204257e+04 8.204257e+04 8.225585e+04 1.016869e+05 1.016869e+05 1.016869e+05 1.078656e+05 9.512288e+04 1.050410e+05 9.372590e+04 9.312071e+04 9.312071e+04 9.100283e+04 8.724056e+04 1.164309e+05 1.164309e+05 1.201957e+05 9.007788e+04 9.007788e+04 9.007788e+04 8.948073e+04 1.261294e+05 1.094930e+05 1.238905e+05 1.242920e+05 1.000220e+05 1.143048e+05 1.150090e+05 1.237272e+05 1.085902e+05 1.090588e+05 8.074170e+04 1.092293e+05 1.206390e+05 1.206390e+05 1.206390e+05 1.262438e+05 1.264699e+05 1.198841e+05 1.234297e+05 1.262438e+05 8.283604e+04 8.161860e+04 8.833422e+04 1.126772e+05 1.115295e+05 1.060454e+05 8.418877e+04 8.418877e+04 8.418877e+04 9.035692e+04 1.227123e+05 1.227123e+05 1.259434e+05 1.259434e+05 1.084018e+05 8.228844e+04 1.233287e+05 9.936452e+04 9.936452e+04 9.936452e+04 9.582407e+04 1.222936e+05 1.222936e+05 9.884894e+04 1.053027e+05 1.135274e+05 8.400522e+04 1.192320e+05 1.192320e+05 1.192320e+05 8.307401e+04 8.307401e+04 8.307401e+04 1.262585e+05 1.049594e+05 1.242818e+05 1.242818e+05 8.162983e+04 8.162983e+04 8.162983e+04 8.402029e+04 9.578122e+04 9.578122e+04 9.578122e+04 1.138378e+05 1.138378e+05 1.138378e+05 1.182639e+05 1.004024e+05 1.002685e+05 1.016884e+05 1.016884e+05 1.016884e+05 9.673520e+04 9.799131e+04 9.799131e+04 1.169557e+05 1.144880e+05 1.245725e+05 1.003930e+05 1.003106e+05 9.789742e+04 8.733730e+04 1.088674e+05 8.995500e+04 8.820325e+04 8.820325e+04 8.678697e+04 1.161335e+05 1.078331e+05 9.242882e+04 9.366004e+04 9.972582e+04 1.070452e+05 9.820358e+04 9.820358e+04 1.137737e+05 1.161168e+05 1.099419e+05 9.303592e+04 1.027435e+05 1.071806e+05 8.790641e+04 8.790641e+04 8.596875e+04 8.596875e+04 1.050993e+05 1.050993e+05 1.050993e+05 1.029050e+05 1.029050e+05 1.030142e+05 1.098352e+05 1.034597e+05 1.034597e+05 9.828512e+04 1.035600e+05 1.044478e+05 1.040722e+05 1.040722e+05 1.064036e+05 1.053304e+05 9.643686e+04 9.643686e+04 1.056979e+05 1.079404e+05 9.789742e+04 9.789742e+04 9.931419e+04 1.006638e+05 1.006638e+05 1.006638e+05 1.021949e+05 9.348736e+04 9.817284e+04 1.011112e+05 1.011112e+05 1.011112e+05 1.012972e+05 1.014039e+05 1.022973e+05 1.011333e+05 9.996615e+04 1.014284e+05 1.014284e+05 1.014284e+05 1.016720e+05 9.999294e+04 1.013548e+05 1.013548e+05 1.013548e+05 1.041320e+05 9.347921e+04 1.016656e+05 1.016656e+05 1.018883e+05 1.004837e+05 1.004837e+05 1.004837e+05 9.669280e+04 9.669280e+04 1.056794e+05 1.016593e+05 1.016593e+05 9.866969e+04 1.012227e+05 1.012227e+05 1.013504e+05 1.008831e+05 1.008831e+05 1.008831e+05 1.009568e+05 1.009568e+05 1.009568e+05 1.013261e+05 1.013261e+05 1.013306e+05 9.800189e+04 1.012299e+05 1.012299e+05 1.013238e+05 1.013355e+05 1.013355e+05 1.013298e+05 1.013298e+05 1.017645e+05 1.010235e+05 1.012911e+05 1.012911e+05 1.013037e+05 1.013037e+05 1.012899e+05 1.012899e+05 1.013234e+05 1.014517e+05 1.014517e+05 1.013590e+05 1.013590e+05 1.013102e+05 1.013562e+05 1.013755e+05 1.013286e+05 1.013286e+05 1.013274e+05 1.013262e+05 1.013186e+05 1.013252e+05 1.013252e+05 1.013268e+05 1.013253e+05 1.013253e+05 1.012093e+05 1.012093e+05 1.013331e+05 1.013251e+05 1.013251e+05 1.013251e+05 1.013250e+05 1.013250e+05 1.014230e+05 1.013256e+05 1.013256e+05 1.013263e+05 1.013263e+05 1.013266e+05 1.013236e+05 1.013375e+05 1.013248e+05 1.013180e+05 1.013250e+05 1.013250e+05 1.013231e+05 1.013231e+05 1.013250e+05 1.013250e+05 1.012876e+05 1.013250e+05 1.013250e+05 1.013250e+05 1.013242e+05 1.013242e+05 1.013251e+05 1.013251e+05 1.013251e+05 1.013250e+05 1.013250e+05 1.013250e+05 1.013250e+05 1.013250e+05 1.013250e+05 1.013250e+05 1.013250e+05 1.013250e+05 1.013245e+05 1.013249e+05 1.013250e+05 1.013250e+05 1.013250e+05 1.013250e+05 1.013250e+05 1.013250e+05 1.013250e+05 1.013250e+05 1.013250e+05 1.013250e+05 1.013250e+05 1.013250e+05 1.013250e+05 1.013250e+05 1.013250e+05 1.013250e+05 1.013250e+05 1.013250e+05 1.013250e+05 1.013250e+05 1.013250e+05 1.013250e+05 1.013250e+05 1.013249e+05 1.013250e+05 1.013250e+05 1.013250e+05 1.013250e+05 1.013250e+05 1.013250e+05 1.013250e+05 1.013250e+05 1.013250e+05 1.013250e+05 1.013250e+05 1.013250e+05 1.013250e+05 1.013250e+05 1.013250e+05 1.013250e+05 1.013250e+05 1.013250e+05 1.013250e+05 1.013250e+05 1.013250e+05 1.013250e+05 1.013250e+05 1.013250e+05 1.013250e+05 1.013250e+05 1.013250e+05 1.013250e+05 1.013250e+05 1.013250e+05 1.013250e+05 1.013250e+05 1.013250e+05 1.013250e+05 1.013250e+05 1.013250e+05 1.013250e+05 1.013250e+05 1.013250e+05 1.013250e+05 1.013250e+05 1.013250e+05 1.013250e+05 1.013250e+05 1.013250e+05 1.013250e+05 1.013250e+05 1.013250e+05 1.013250e+05 1.013250e+05 1.013250e+05 1.013249e+05 1.013250e+05 1.013250e+05 1.013249e+05 1.013249e+05 1.013178e+05 1.013250e+05 1.013250e+05 1.013250e+05 1.013250e+05 1.013250e+05 1.013250e+05 1.013250e+05 1.013250e+05 1.013250e+05 1.013250e+05 1.013233e+05 1.013250e+05 1.013250e+05 1.013250e+05 1.013250e+05 1.013250e+05 1.013250e+05 1.013250e+05 1.013250e+05 1.013250e+05 1.013250e+05 1.013250e+05 1.013250e+05 1.013250e+05 1.013250e+05 1.013250e+05 1.013250e+05 1.258409e+05 1.258409e+05 1.257770e+05 1.257175e+05 1.256555e+05 1.255829e+05 1.254498e+05 1.252694e+05 1.251090e+05 1.249725e+05 1.248641e+05 1.247622e+05 1.246308e+05 1.244552e+05 1.241475e+05 1.238297e+05 1.236397e+05 1.235465e+05 1.234096e+05 1.232281e+05 1.230468e+05 1.229266e+05 1.227461e+05 1.225313e+05 1.222797e+05 1.219707e+05 1.217346e+05 1.214005e+05 1.211121e+05 1.207914e+05 1.206226e+05 1.205437e+05 1.203820e+05 1.200818e+05 1.197403e+05 1.194220e+05 1.191406e+05 1.188085e+05 1.183904e+05 1.180310e+05 1.176735e+05 1.173866e+05 1.170484e+05 1.168086e+05 1.165577e+05 1.163669e+05 1.161788e+05 1.159227e+05 1.155974e+05 1.152888e+05 1.149166e+05 1.145280e+05 1.141005e+05 1.137200e+05 1.133070e+05 1.129724e+05 1.126362e+05 1.123458e+05 1.120399e+05 1.116967e+05 1.113104e+05 1.109207e+05 1.105360e+05 1.101975e+05 1.098376e+05 1.094652e+05 1.090495e+05 1.087085e+05 1.083497e+05 1.080064e+05 1.076486e+05 1.073002e+05 1.069268e+05 1.065512e+05 1.061378e+05 1.057762e+05 1.053953e+05 1.050233e+05 1.046526e+05 1.043224e+05 1.039241e+05 1.035824e+05 1.031992e+05 1.028241e+05 1.024878e+05 1.021347e+05 1.017841e+05 1.014237e+05 1.010678e+05 1.007079e+05 1.003562e+05 1.000075e+05 9.962146e+04 9.929309e+04 9.893959e+04 9.859287e+04 9.825191e+04 9.794168e+04 9.758245e+04 9.722101e+04 9.691939e+04 9.657148e+04 9.623399e+04 9.587098e+04 9.554727e+04 9.520489e+04 9.489808e+04 9.455651e+04 9.422938e+04 9.394478e+04 9.365295e+04 9.337149e+04 9.310781e+04 9.278699e+04 9.252390e+04 9.218999e+04 9.189530e+04 9.159602e+04 9.126795e+04 9.096822e+04 9.071886e+04 9.042924e+04 9.013594e+04 8.984756e+04 8.953922e+04 8.924841e+04 8.900081e+04 8.874391e+04 8.854157e+04 8.833658e+04 8.814242e+04 8.790757e+04 8.768997e+04 8.743725e+04 8.722482e+04 8.698507e+04 8.684008e+04 8.669327e+04 8.651989e+04 8.635040e+04 8.613597e+04 8.589476e+04 8.565885e+04 8.542044e+04 8.519895e+04 8.499953e+04 8.481973e+04 8.469453e+04 8.460656e+04 8.451158e+04 8.438431e+04 8.420696e+04 8.402867e+04 8.359065e+04 8.415459e+04 8.359444e+04 8.335130e+04 8.315423e+04 8.303043e+04 8.290934e+04 8.277623e+04 8.264396e+04 8.254275e+04 8.246146e+04 8.239394e+04 8.232020e+04 8.219553e+04 8.207775e+04 8.190698e+04 8.173443e+04 8.158756e+04 8.153475e+04 8.148632e+04 8.145097e+04 8.140766e+04 8.136115e+04 8.130256e+04 8.125484e+04 8.121545e+04 8.114103e+04 8.105160e+04 1.013250e+05 1.013250e+05 1.013250e+05 1.013250e+05 1.013250e+05 1.013250e+05 1.013250e+05 1.013250e+05 1.013250e+05 1.013250e+05 1.013250e+05 1.013250e+05 1.013250e+05 1.013250e+05 1.013250e+05 1.013250e+05 1.013250e+05 1.013250e+05 1.013250e+05 1.142345e+05 1.142345e+05 1.142345e+05 1.101546e+05 1.220587e+05 1.220587e+05 1.220587e+05 1.180523e+05 9.885654e+04 9.885654e+04 9.885654e+04 9.923082e+04 9.958774e+04 9.967933e+04 8.512836e+04 8.512836e+04 8.512836e+04 8.522394e+04 8.522394e+04 1.183972e+05 1.183972e+05 1.183972e+05 1.181759e+05 8.356484e+04 8.356484e+04 8.356484e+04 8.363552e+04 8.363552e+04 1.256991e+05 1.256991e+05 1.256991e+05 1.064048e+05 1.064048e+05 1.064048e+05 1.066558e+05 1.032450e+05 1.032450e+05 1.032450e+05 1.154239e+05 1.154239e+05 1.154239e+05 1.151172e+05 8.831845e+04 8.831845e+04 8.831680e+04 8.831680e+04 1.074673e+05 1.074673e+05 1.078020e+05 1.162751e+05 1.162751e+05 1.162751e+05 1.162442e+05 1.162442e+05 8.267434e+04 8.267434e+04 8.267434e+04 8.275992e+04 8.275992e+04 1.013250e+05 1.013250e+05 1.013250e+05 1.013250e+05 1.013250e+05 1.225451e+05 1.225451e+05 1.086494e+05 1.086494e+05 1.086494e+05 1.088986e+05 1.028213e+05 1.028213e+05 1.028213e+05 1.027198e+05 1.028445e+05 1.089801e+05 1.089801e+05 1.089801e+05 1.068956e+05 1.068956e+05 1.070915e+05 1.194220e+05 1.198309e+05 1.198309e+05 8.145097e+04 8.146975e+04 8.146975e+04 1.023719e+05 8.953922e+04 8.980178e+04 1.013250e+05 1.013250e+05 1.013250e+05 1.013250e+05 1.013250e+05 1.013250e+05 1.013250e+05 1.013250e+05 1.013250e+05 1.013250e+05 1.013250e+05 1.013250e+05 1.013250e+05 1.013250e+05 1.013250e+05 1.012469e+05 1.012469e+05 1.012469e+05 1.012901e+05 1.050951e+05 1.032111e+05 1.019621e+05 1.128844e+05 1.128844e+05 1.030235e+05 1.030235e+05 1.030235e+05 1.029945e+05 1.138144e+05 1.138144e+05 1.138144e+05 1.148191e+05 1.148191e+05 1.133845e+05 8.990293e+04 8.990293e+04 8.990293e+04 9.055633e+04 9.144253e+04 9.144253e+04 9.144253e+04 9.177208e+04 9.199243e+04 1.105904e+05 1.105904e+05 1.105904e+05 1.101517e+05 8.074170e+04 8.091690e+04 9.583492e+04 9.583492e+04 9.583492e+04 9.628779e+04 8.667299e+04 8.667299e+04 8.667299e+04 8.645131e+04 1.161863e+05 1.161863e+05 1.161863e+05 1.166420e+05 1.166420e+05 8.553484e+04 8.553484e+04 8.553484e+04 8.557882e+04 1.137592e+05 1.137592e+05 1.137592e+05 1.137496e+05 1.166647e+05 1.166647e+05 1.166647e+05 1.165673e+05 9.014323e+04 9.014323e+04 9.013521e+04 1.031951e+05 1.031951e+05 1.043387e+05 1.043387e+05 1.043387e+05 1.011983e+05 1.011983e+05 1.011983e+05 1.009140e+05 8.138304e+04 8.138304e+04 8.138304e+04 8.133743e+04 8.133743e+04 1.225265e+05 1.225265e+05 1.225265e+05 1.223257e+05 1.223257e+05 1.034036e+05 1.124745e+05 1.124745e+05 1.127589e+05 8.118549e+04 8.118549e+04 8.118549e+04 8.115002e+04 8.231912e+04 8.231912e+04 8.268186e+04 8.268186e+04 1.181845e+05 1.181845e+05 1.185249e+05 1.157140e+05 1.157140e+05 8.294686e+04 8.294686e+04 8.302171e+04 8.302171e+04 1.143494e+05 1.143494e+05 1.143494e+05 1.141514e+05 1.027613e+05 1.026723e+05 1.078994e+05 1.078994e+05 1.078994e+05 1.074891e+05 1.102728e+05 1.102728e+05 1.102728e+05 1.098011e+05 1.098011e+05 8.167064e+04 8.167064e+04 8.167064e+04 8.154631e+04 8.154631e+04 1.086851e+05 1.091285e+05 1.249500e+05 1.249500e+05 1.249500e+05 1.251306e+05 8.313792e+04 8.313792e+04 8.313792e+04 8.318430e+04 8.318430e+04 8.302169e+04 8.321810e+04 1.046926e+05 1.046926e+05 1.046926e+05 1.045375e+05 1.045375e+05 9.987396e+04 9.991849e+04 9.991849e+04 8.775976e+04 8.775976e+04 8.775976e+04 8.767079e+04 8.767079e+04 8.939317e+04 8.939317e+04 8.939317e+04 8.871789e+04 8.871789e+04 8.377450e+04 8.377450e