<?xml version="1.0"?>
 <VTKFile type="UnstructuredGrid" version="1.0" byte_order="LittleEndian" header_type="UInt64">
  <UnstructuredGrid>
    <FieldData>
     <DataArray type="Float64" Name="TimeValue" NumberOfTuples="1" format="ascii">
2e-05
     </DataArray>
    </FieldData>
   <Piece NumberOfPoints="3468" NumberOfCells="3392">
    <PointData>
     <DataArray type="Float64" Name="pointP" format="ascii">
1.028320e+05 1.028319e+05 1.028309e+05 1.028266e+05 1.028244e+05 1.028283e+05 1.028283e+05 1.028270e+05 1.028225e+05 1.028211e+05 1.028211e+05 1.028107e+05 1.028117e+05 1.028045e+05 1.028045e+05 1.028002e+05 1.027985e+05 1.027950e+05 1.027877e+05 1.027863e+05 1.027808e+05 1.027756e+05 1.027712e+05 1.027712e+05 1.027623e+05 1.027555e+05 1.027598e+05 1.027540e+05 1.027447e+05 1.027390e+05 1.027348e+05 1.027310e+05 1.027260e+05 1.027260e+05 1.027231e+05 1.027163e+05 1.027041e+05 1.026988e+05 1.026967e+05 1.026892e+05 1.026856e+05 1.026869e+05 1.026799e+05 1.026705e+05 1.026677e+05 1.026675e+05 1.026558e+05 1.026518e+05 1.026498e+05 1.026429e+05 1.026371e+05 1.026315e+05 1.026186e+05 1.026186e+05 1.026058e+05 1.026058e+05 1.025952e+05 1.025818e+05 1.025792e+05 1.025724e+05 1.025582e+05 1.025492e+05 1.025492e+05 1.025406e+05 1.025302e+05 1.025242e+05 1.025071e+05 1.024947e+05 1.024947e+05 1.024768e+05 1.024746e+05 1.024633e+05 1.024488e+05 1.024292e+05 1.024292e+05 1.024175e+05 1.024002e+05 1.023926e+05 1.023824e+05 1.023586e+05 1.023446e+05 1.023446e+05 1.023285e+05 1.023071e+05 1.022849e+05 1.022849e+05 1.022694e+05 1.022363e+05 1.022363e+05 1.022010e+05 1.021803e+05 1.021803e+05 1.021617e+05 1.021448e+05 1.021111e+05 1.021034e+05 1.020621e+05 1.020414e+05 1.020414e+05 1.020072e+05 1.019785e+05 1.019785e+05 1.019555e+05 1.019218e+05 1.019041e+05 1.018529e+05 1.018529e+05 1.018110e+05 1.017732e+05 1.017732e+05 1.017128e+05 1.017020e+05 1.016492e+05 1.016184e+05 1.016184e+05 1.015509e+05 1.015261e+05 1.015141e+05 1.014680e+05 1.014501e+05 1.014125e+05 1.013250e+05 1.013250e+05 1.013250e+05 1.013250e+05 1.013250e+05 1.017107e+05 1.019119e+05 1.021708e+05 1.023608e+05 1.025773e+05 1.025773e+05 1.026298e+05 1.026298e+05 1.025108e+05 1.025108e+05 1.025108e+05 1.025009e+05 1.025009e+05 1.014701e+05 1.014701e+05 1.026820e+05 1.026820e+05 1.026820e+05 1.026802e+05 1.026802e+05 1.027210e+05 1.027210e+05 1.027210e+05 1.027571e+05 1.025022e+05 1.025022e+05 1.024752e+05 1.017219e+05 1.017219e+05 1.017219e+05 1.016961e+05 1.016961e+05 1.017479e+05 1.016565e+05 1.016565e+05 1.017154e+05 1.014795e+05 1.016015e+05 1.016114e+05 1.014452e+05 1.014452e+05 1.014160e+05 1.014160e+05 1.013978e+05 1.013916e+05 1.027671e+05 1.027671e+05 1.027671e+05 1.027460e+05 1.027460e+05 1.027143e+05 1.027456e+05 1.027456e+05 1.027456e+05 1.027448e+05 1.027445e+05 1.026944e+05 1.026840e+05 1.026840e+05 1.027224e+05 1.027391e+05 1.027391e+05 1.027409e+05 1.026662e+05 1.026662e+05 1.026662e+05 1.027732e+05 1.027732e+05 1.027732e+05 1.028150e+05 1.028150e+05 1.028150e+05 1.026417e+05 1.026417e+05 1.026417e+05 1.027689e+05 1.027689e+05 1.027689e+05 1.026956e+05 1.026956e+05 1.026956e+05 1.026942e+05 1.027717e+05 1.027717e+05 1.027408e+05 1.027408e+05 1.027408e+05 1.028102e+05 1.028012e+05 1.027463e+05 1.027463e+05 1.026122e+05 1.026122e+05 1.026122e+05 1.026100e+05 1.026100e+05 1.027653e+05 1.027612e+05 1.027612e+05 1.026977e+05 1.026977e+05 1.026977e+05 1.026157e+05 1.026157e+05 1.027718e+05 1.027718e+05 1.027718e+05 1.027494e+05 1.027905e+05 1.027775e+05 1.027045e+05 1.027045e+05 1.027218e+05 1.027218e+05 1.027218e+05 1.027692e+05 1.027779e+05 1.027779e+05 1.027567e+05 1.027567e+05 1.027567e+05 1.025560e+05 1.025560e+05 1.025560e+05 1.027507e+05 1.027507e+05 1.027507e+05 1.027873e+05 1.027630e+05 1.028273e+05 1.028273e+05 1.028273e+05 1.028258e+05 1.026677e+05 1.026677e+05 1.028155e+05 1.027210e+05 1.027210e+05 1.027210e+05 1.028254e+05 1.028254e+05 1.027180e+05 1.027180e+05 1.027642e+05 1.027642e+05 1.027642e+05 1.028113e+05 1.028113e+05 1.028113e+05 1.028012e+05 1.028012e+05 1.028012e+05 1.028174e+05 1.028174e+05 1.027093e+05 1.027093e+05 1.028160e+05 1.028160e+05 1.028160e+05 1.027127e+05 1.026879e+05 1.026879e+05 1.026879e+05 1.028058e+05 1.027094e+05 1.027094e+05 1.027739e+05 1.027739e+05 1.027739e+05 1.026579e+05 1.026579e+05 1.026579e+05 1.027981e+05 1.027900e+05 1.027900e+05 1.027900e+05 1.028044e+05 1.028044e+05 1.028044e+05 1.028013e+05 1.028084e+05 1.027700e+05 1.027700e+05 1.027700e+05 1.027646e+05 1.027646e+05 1.026614e+05 1.026614e+05 1.026614e+05 1.027974e+05 1.027974e+05 1.027974e+05 1.028053e+05 1.028118e+05 1.027921e+05 1.027921e+05 1.026884e+05 1.026884e+05 1.026884e+05 1.028080e+05 1.028080e+05 1.027774e+05 1.027774e+05 1.027890e+05 1.027905e+05 1.027905e+05 1.027814e+05 1.027814e+05 1.027814e+05 1.027297e+05 1.027880e+05 1.027946e+05 1.027946e+05 1.027119e+05 1.027119e+05 1.027305e+05 1.027305e+05 1.027305e+05 1.027582e+05 1.027582e+05 1.025858e+05 1.025858e+05 1.025858e+05 1.026470e+05 1.026470e+05 1.026470e+05 1.027481e+05 1.027840e+05 1.026760e+05 1.026760e+05 1.026760e+05 1.027625e+05 1.027625e+05 1.027625e+05 1.027727e+05 1.027812e+05 1.027840e+05 1.027523e+05 1.026314e+05 1.026314e+05 1.026314e+05 1.027531e+05 1.027531e+05 1.026100e+05 1.026100e+05 1.026100e+05 1.027374e+05 1.027374e+05 1.027374e+05 1.027439e+05 1.025688e+05 1.025688e+05 1.025688e+05 1.027487e+05 1.027731e+05 1.027731e+05 1.027523e+05 1.026831e+05 1.026831e+05 1.027504e+05 1.027313e+05 1.027313e+05 1.027314e+05 1.027314e+05 1.027349e+05 1.027598e+05 1.026513e+05 1.026513e+05 1.026513e+05 1.027198e+05 1.025719e+05 1.025719e+05 1.027840e+05 1.027152e+05 1.027152e+05 1.027179e+05 1.024502e+05 1.024502e+05 1.024502e+05 1.025941e+05 1.025941e+05 1.027098e+05 1.027098e+05 1.026988e+05 1.026988e+05 1.027431e+05 1.026166e+05 1.026166e+05 1.026166e+05 1.026715e+05 1.026715e+05 1.026715e+05 1.027775e+05 1.026118e+05 1.026118e+05 1.026693e+05 1.026730e+05 1.027544e+05 1.027523e+05 1.027355e+05 1.027355e+05 1.025512e+05 1.025512e+05 1.025512e+05 1.027004e+05 1.023745e+05 1.023745e+05 1.023745e+05 1.026792e+05 1.026792e+05 1.027006e+05 1.027605e+05 1.024562e+05 1.024562e+05 1.024562e+05 1.025362e+05 1.025362e+05 1.025362e+05 1.025010e+05 1.025010e+05 1.025733e+05 1.025733e+05 1.025861e+05 1.025861e+05 1.025937e+05 1.027580e+05 1.027580e+05 1.027055e+05 1.027055e+05 1.026547e+05 1.026547e+05 1.027369e+05 1.023850e+05 1.023546e+05 1.023546e+05 1.023546e+05 1.026664e+05 1.025393e+05 1.025393e+05 1.026520e+05 1.026520e+05 1.028201e+05 1.027425e+05 1.027019e+05 1.026055e+05 1.026055e+05 1.025960e+05 1.025960e+05 1.027041e+05 1.023068e+05 1.023068e+05 1.023068e+05 1.022144e+05 1.022144e+05 1.022144e+05 1.026318e+05 1.026318e+05 1.026318e+05 1.026709e+05 1.026709e+05 1.016655e+05 1.016655e+05 1.016655e+05 1.023536e+05 1.023536e+05 1.023536e+05 1.025461e+05 1.022807e+05 1.022807e+05 1.022807e+05 1.025347e+05 1.025347e+05 1.026270e+05 1.023257e+05 1.023257e+05 1.020132e+05 1.020132e+05 1.020132e+05 1.026504e+05 1.026504e+05 1.025815e+05 1.025815e+05 1.025171e+05 1.025171e+05 1.025171e+05 1.020870e+05 1.020870e+05 1.020870e+05 1.026667e+05 1.020935e+05 1.020935e+05 1.020935e+05 1.016150e+05 1.016150e+05 1.016150e+05 1.024130e+05 1.024130e+05 1.024130e+05 1.024496e+05 1.024856e+05 1.024856e+05 1.024889e+05 1.026129e+05 1.026129e+05 1.016301e+05 1.025448e+05 1.025448e+05 1.025448e+05 1.020229e+05 1.020229e+05 1.020229e+05 1.024209e+05 1.024209e+05 1.024209e+05 1.023169e+05 1.023169e+05 1.023169e+05 1.023869e+05 1.023869e+05 1.024610e+05 1.024610e+05 1.025412e+05 1.025412e+05 1.021973e+05 1.021973e+05 1.021973e+05 1.025784e+05 1.025784e+05 1.024731e+05 1.024731e+05 1.021153e+05 1.020638e+05 1.020638e+05 1.024435e+05 1.024435e+05 1.023702e+05 1.020349e+05 1.020349e+05 1.020349e+05 1.022711e+05 1.022711e+05 1.022068e+05 1.022068e+05 1.023975e+05 1.026365e+05 1.026365e+05 1.026365e+05 1.026699e+05 1.026699e+05 1.026699e+05 1.019869e+05 1.019869e+05 1.018691e+05 1.018691e+05 1.018691e+05 1.020883e+05 1.017998e+05 1.017998e+05 1.026625e+05 1.027436e+05 1.027811e+05 1.028198e+05 1.027865e+05 1.027431e+05 1.027132e+05 1.015243e+05 1.015243e+05 1.015243e+05 1.022944e+05 1.022944e+05 1.024174e+05 1.023689e+05 1.014937e+05 1.027914e+05 1.028169e+05 1.025933e+05 1.023981e+05 1.023981e+05 1.019531e+05 1.019531e+05 1.019531e+05 1.019628e+05 1.022835e+05 1.023987e+05 1.023987e+05 1.023477e+05 1.023477e+05 1.023477e+05 1.023495e+05 1.025923e+05 1.026134e+05 1.027806e+05 1.027920e+05 1.027920e+05 1.028309e+05 1.027530e+05 1.027530e+05 1.024943e+05 1.024580e+05 1.018109e+05 1.018109e+05 1.018109e+05 1.016668e+05 1.016668e+05 1.028255e+05 1.028255e+05 1.027922e+05 1.028212e+05 1.028244e+05 1.028289e+05 1.028225e+05 1.028225e+05 1.028225e+05 1.027737e+05 1.028194e+05 1.028124e+05 1.027248e+05 1.027667e+05 1.027851e+05 1.027851e+05 1.027851e+05 1.027946e+05 1.027946e+05 1.028301e+05 1.028286e+05 1.028087e+05 1.028258e+05 1.027756e+05 1.028197e+05 1.028288e+05 1.028288e+05 1.028194e+05 1.028016e+05 1.028016e+05 1.028064e+05 1.028250e+05 1.027992e+05 1.027625e+05 1.027601e+05 1.027482e+05 1.028020e+05 1.028020e+05 1.028020e+05 1.028146e+05 1.028146e+05 1.027852e+05 1.027783e+05 1.028115e+05 1.028164e+05 1.027982e+05 1.028278e+05 1.028187e+05 1.026802e+05 1.027759e+05 1.028085e+05 1.027637e+05 1.028030e+05 1.027946e+05 1.027295e+05 1.027336e+05 1.027076e+05 1.027988e+05 1.028171e+05 1.026199e+05 1.026199e+05 1.028036e+05 1.027032e+05 1.027032e+05 1.027691e+05 1.027691e+05 1.027061e+05 1.026027e+05 1.026388e+05 1.026388e+05 1.026388e+05 1.027859e+05 1.027894e+05 1.027894e+05 1.026142e+05 1.025744e+05 1.027592e+05 1.026488e+05 1.026509e+05 1.026509e+05 1.026993e+05 1.027356e+05 1.027234e+05 1.027234e+05 1.026927e+05 1.026965e+05 1.026844e+05 1.026462e+05 1.026469e+05 1.025450e+05 1.025450e+05 1.027352e+05 1.027670e+05 1.026965e+05 1.026965e+05 1.026965e+05 1.026700e+05 1.026427e+05 1.027571e+05 1.027028e+05 1.025926e+05 1.025926e+05 1.025926e+05 1.027171e+05 1.027171e+05 1.026294e+05 1.026732e+05 1.025330e+05 1.026837e+05 1.025576e+05 1.025093e+05 1.025093e+05 1.025852e+05 1.025998e+05 1.026665e+05 1.026326e+05 1.026275e+05 1.026551e+05 1.025269e+05 1.025269e+05 1.025269e+05 1.025767e+05 1.026899e+05 1.026635e+05 1.025193e+05 1.027093e+05 1.026801e+05 1.026801e+05 1.024851e+05 1.024918e+05 1.022258e+05 1.022258e+05 1.026735e+05 1.023912e+05 1.023912e+05 1.024067e+05 1.025097e+05 1.025097e+05 1.024134e+05 1.024134e+05 1.026372e+05 1.024738e+05 1.023846e+05 1.023669e+05 1.023669e+05 1.026557e+05 1.025603e+05 1.025603e+05 1.024976e+05 1.024976e+05 1.024976e+05 1.026180e+05 1.026180e+05 1.025814e+05 1.024315e+05 1.024315e+05 1.022516e+05 1.022920e+05 1.023901e+05 1.025601e+05 1.024661e+05 1.025523e+05 1.025363e+05 1.025059e+05 1.025119e+05 1.023544e+05 1.021480e+05 1.021480e+05 1.021480e+05 1.023680e+05 1.023290e+05 1.022895e+05 1.022895e+05 1.022895e+05 1.024325e+05 1.024803e+05 1.024803e+05 1.024803e+05 1.021817e+05 1.025852e+05 1.021319e+05 1.021319e+05 1.023442e+05 1.025527e+05 1.026167e+05 1.025667e+05 1.024758e+05 1.016960e+05 1.016960e+05 1.024453e+05 1.025305e+05 1.022696e+05 1.025739e+05 1.024134e+05 1.024134e+05 1.024134e+05 1.022005e+05 1.022493e+05 1.022493e+05 1.022493e+05 1.020729e+05 1.020729e+05 1.021748e+05 1.024600e+05 1.019058e+05 1.019197e+05 1.023138e+05 1.022690e+05 1.022690e+05 1.019683e+05 1.019683e+05 1.025420e+05 1.022262e+05 1.020360e+05 1.020360e+05 1.021635e+05 1.021635e+05 1.026267e+05 1.023042e+05 1.024067e+05 1.018397e+05 1.018397e+05 1.018854e+05 1.018854e+05 1.018854e+05 1.018246e+05 1.019518e+05 1.019518e+05 1.023392e+05 1.024447e+05 1.024199e+05 1.022091e+05 1.021965e+05 1.021965e+05 1.018515e+05 1.022720e+05 1.021042e+05 1.022142e+05 1.021777e+05 1.021777e+05 1.022539e+05 1.022903e+05 1.020608e+05 1.020608e+05 1.019301e+05 1.019301e+05 1.021536e+05 1.021536e+05 1.014752e+05 1.017249e+05 1.015138e+05 1.016186e+05 1.024712e+05 1.024712e+05 1.020423e+05 1.017897e+05 1.017897e+05 1.017707e+05 1.017707e+05 1.015887e+05 1.015887e+05 1.019024e+05 1.024203e+05 1.024361e+05 1.020794e+05 1.022204e+05 1.017840e+05 1.021048e+05 1.021230e+05 1.017509e+05 1.017509e+05 1.025453e+05 1.019961e+05 1.019961e+05 1.019961e+05 1.019840e+05 1.015284e+05 1.015768e+05 1.022360e+05 1.024370e+05 1.021611e+05 1.021764e+05 1.018632e+05 1.015544e+05 1.023382e+05 1.015167e+05 1.017172e+05 1.021308e+05 1.018142e+05 1.021175e+05 1.016660e+05 1.018180e+05 1.018840e+05 1.019295e+05 1.018751e+05 1.023600e+05 1.022703e+05 1.020416e+05 1.021770e+05 1.021770e+05 1.019604e+05 1.019604e+05 1.023217e+05 1.023217e+05 1.021431e+05 1.021097e+05 1.018927e+05 1.013250e+05 1.013250e+05 1.013250e+05 1.013250e+05 1.014826e+05 1.016730e+05 1.019393e+05 1.021667e+05 1.023559e+05 1.025705e+05 1.026867e+05 1.024858e+05 1.024858e+05 1.024858e+05 1.024646e+05 1.025028e+05 1.024600e+05 1.025177e+05 1.018527e+05 1.018527e+05 1.018527e+05 1.018704e+05 1.022921e+05 1.022921e+05 1.022921e+05 1.022853e+05 1.026708e+05 1.026708e+05 1.026708e+05 1.027013e+05 1.027013e+05 1.016686e+05 1.016686e+05 1.016686e+05 1.015984e+05 1.015984e+05 1.025409e+05 1.017238e+05 1.017238e+05 1.016623e+05 1.017890e+05 1.017890e+05 1.018135e+05 1.024755e+05 1.015327e+05 1.015327e+05 1.015327e+05 1.014419e+05 1.014419e+05 1.014419e+05 1.014256e+05 1.016184e+05 1.015917e+05 1.015917e+05 1.015917e+05 1.027302e+05 1.027721e+05 1.027302e+05 1.027302e+05 1.015733e+05 1.015459e+05 1.027326e+05 1.027304e+05 1.027326e+05 1.027326e+05 1.025376e+05 1.021985e+05 1.021985e+05 1.021985e+05 1.022292e+05 1.023929e+05 1.023929e+05 1.014826e+05 1.027632e+05 1.016145e+05 1.016145e+05 1.015111e+05 1.023665e+05 1.023665e+05 1.027506e+05 1.027411e+05 1.027411e+05 1.027411e+05 1.027390e+05 1.025890e+05 1.025890e+05 1.025890e+05 1.025832e+05 1.025832e+05 1.023458e+05 1.023458e+05 1.023458e+05 1.023829e+05 1.023829e+05 1.026859e+05 1.026859e+05 1.026859e+05 1.026887e+05 1.023418e+05 1.023418e+05 1.023418e+05 1.023344e+05 1.025780e+05 1.025780e+05 1.025780e+05 1.025759e+05 1.025719e+05 1.025725e+05 1.027081e+05 1.027081e+05 1.027081e+05 1.027041e+05 1.027090e+05 1.026518e+05 1.026518e+05 1.026309e+05 1.026309e+05 1.026309e+05 1.027177e+05 1.027177e+05 1.027177e+05 1.027408e+05 1.027408e+05 1.027408e+05 1.024789e+05 1.024789e+05 1.024870e+05 1.024870e+05 1.022485e+05 1.022485e+05 1.022485e+05 1.022412e+05 1.027864e+05 1.027864e+05 1.027864e+05 1.026012e+05 1.026012e+05 1.026012e+05 1.027455e+05 1.027455e+05 1.027455e+05 1.026408e+05 1.026408e+05 1.026408e+05 1.027576e+05 1.027576e+05 1.027576e+05 1.027675e+05 1.027675e+05 1.027952e+05 1.027952e+05 1.028138e+05 1.028138e+05 1.028138e+05 1.027480e+05 1.027480e+05 1.027480e+05 1.026859e+05 1.026859e+05 1.026859e+05 1.027740e+05 1.027812e+05 1.023763e+05 1.023763e+05 1.023763e+05 1.027241e+05 1.027241e+05 1.027241e+05 1.027490e+05 1.027490e+05 1.026224e+05 1.026224e+05 1.025885e+05 1.026528e+05 1.026528e+05 1.026528e+05 1.025485e+05 1.025485e+05 1.025485e+05 1.027511e+05 1.027366e+05 1.026565e+05 1.026565e+05 1.026565e+05 1.024076e+05 1.024076e+05 1.024076e+05 1.026361e+05 1.027596e+05 1.027511e+05 1.027511e+05 1.027511e+05 1.028176e+05 1.028176e+05 1.028176e+05 1.027505e+05 1.027505e+05 1.027716e+05 1.027716e+05 1.027773e+05 1.026501e+05 1.026501e+05 1.024329e+05 1.024329e+05 1.024329e+05 1.024530e+05 1.025720e+05 1.025720e+05 1.017574e+05 1.017574e+05 1.017574e+05 1.028229e+05 1.027944e+05 1.027944e+05 1.027944e+05 1.028132e+05 1.028132e+05 1.028182e+05 1.026856e+05 1.026856e+05 1.028105e+05 1.028105e+05 1.027344e+05 1.027344e+05 1.027344e+05 1.028182e+05 1.028018e+05 1.028018e+05 1.028018e+05 1.027754e+05 1.027754e+05 1.027754e+05 1.027991e+05 1.027991e+05 1.027561e+05 1.027561e+05 1.027561e+05 1.027496e+05 1.027906e+05 1.027906e+05 1.027906e+05 1.027688e+05 1.027688e+05 1.027688e+05 1.028121e+05 1.028121e+05 1.028121e+05 1.028086e+05 1.028086e+05 1.028060e+05 1.027855e+05 1.027855e+05 1.027881e+05 1.027881e+05 1.027953e+05 1.027953e+05 1.027743e+05 1.028060e+05 1.028060e+05 1.026960e+05 1.026960e+05 1.026960e+05 1.027899e+05 1.028011e+05 1.028127e+05 1.027572e+05 1.027572e+05 1.026831e+05 1.026831e+05 1.026831e+05 1.027011e+05 1.027174e+05 1.025022e+05 1.025022e+05 1.025022e+05 1.028035e+05 1.026518e+05 1.026518e+05 1.026518e+05 1.027322e+05 1.027322e+05 1.027322e+05 1.027876e+05 1.024754e+05 1.024754e+05 1.024754e+05 1.026835e+05 1.027057e+05 1.027057e+05 1.027057e+05 1.026954e+05 1.027869e+05 1.027926e+05 1.024401e+05 1.024401e+05 1.024401e+05 1.027756e+05 1.027756e+05 1.027852e+05 1.027852e+05 1.027739e+05 1.027790e+05 1.026310e+05 1.027713e+05 1.027289e+05 1.027289e+05 1.026105e+05 1.026105e+05 1.026105e+05 1.024066e+05 1.024066e+05 1.024066e+05 1.026645e+05 1.026645e+05 1.026645e+05 1.024401e+05 1.024401e+05 1.027344e+05 1.027344e+05 1.027235e+05 1.027235e+05 1.026793e+05 1.026793e+05 1.026793e+05 1.027575e+05 1.027575e+05 1.027818e+05 1.027818e+05 1.026841e+05 1.026841e+05 1.027814e+05 1.027814e+05 1.027814e+05 1.027465e+05 1.024142e+05 1.024142e+05 1.026512e+05 1.026702e+05 1.026702e+05 1.026702e+05 1.027659e+05 1.027520e+05 1.026141e+05 1.026141e+05 1.026141e+05 1.026045e+05 1.026045e+05 1.026990e+05 1.026990e+05 1.026990e+05 1.027649e+05 1.025619e+05 1.025619e+05 1.025619e+05 1.026991e+05 1.026790e+05 1.025869e+05 1.025339e+05 1.025339e+05 1.025181e+05 1.025181e+05 1.026749e+05 1.026192e+05 1.026192e+05 1.026192e+05 1.026538e+05 1.027383e+05 1.027383e+05 1.025925e+05 1.025925e+05 1.025640e+05 1.025640e+05 1.023241e+05 1.023241e+05 1.026923e+05 1.027812e+05 1.025363e+05 1.025363e+05 1.025363e+05 1.027331e+05 1.027336e+05 1.022223e+05 1.022223e+05 1.022223e+05 1.026518e+05 1.027259e+05 1.027259e+05 1.027010e+05 1.020867e+05 1.020867e+05 1.020867e+05 1.026041e+05 1.027048e+05 1.027012e+05 1.022131e+05 1.022131e+05 1.024649e+05 1.024649e+05 1.024649e+05 1.024591e+05 1.024591e+05 1.024591e+05 1.027084e+05 1.026468e+05 1.020794e+05 1.020794e+05 1.020794e+05 1.025615e+05 1.025615e+05 1.025615e+05 1.025539e+05 1.021524e+05 1.021524e+05 1.021524e+05 1.026191e+05 1.027232e+05 1.027332e+05 1.024333e+05 1.024333e+05 1.026177e+05 1.026250e+05 1.026293e+05 1.020234e+05 1.020234e+05 1.020234e+05 1.022249e+05 1.016874e+05 1.016874e+05 1.016874e+05 1.024261e+05 1.024922e+05 1.024922e+05 1.024966e+05 1.024857e+05 1.026791e+05 1.026791e+05 1.027073e+05 1.027073e+05 1.022316e+05 1.022997e+05 1.022997e+05 1.022953e+05 1.025592e+05 1.025592e+05 1.025840e+05 1.026029e+05 1.018499e+05 1.018499e+05 1.026349e+05 1.021122e+05 1.021122e+05 1.024220e+05 1.014744e+05 1.022437e+05 1.022437e+05 1.023473e+05 1.021292e+05 1.021292e+05 1.021292e+05 1.024135e+05 1.026903e+05 1.026903e+05 1.023082e+05 1.023082e+05 1.015400e+05 1.020286e+05 1.017251e+05 1.017251e+05 1.020459e+05 1.020365e+05 1.020365e+05 1.024107e+05 1.027699e+05 1.026859e+05 1.025271e+05 1.025271e+05 1.020127e+05 1.024908e+05 1.025394e+05 1.025394e+05 1.028229e+05 1.028229e+05 1.027594e+05 1.026780e+05 1.021870e+05 1.021870e+05 1.024279e+05 1.025392e+05 1.025844e+05 1.025844e+05 1.027081e+05 1.026458e+05 1.027950e+05 1.024488e+05 1.018529e+05 1.017020e+05 1.017020e+05 1.016492e+05 1.028244e+05 1.028244e+05 1.028283e+05 1.028199e+05 1.028199e+05 1.028320e+05 1.028302e+05 1.028320e+05 1.028272e+05 1.027896e+05 1.028283e+05 1.028280e+05 1.028280e+05 1.028280e+05 1.028211e+05 1.028101e+05 1.028101e+05 1.028101e+05 1.028107e+05 1.028107e+05 1.028285e+05 1.027863e+05 1.027863e+05 1.028045e+05 1.028002e+05 1.028189e+05 1.028189e+05 1.027985e+05 1.027310e+05 1.027851e+05 1.028008e+05 1.027712e+05 1.028275e+05 1.028275e+05 1.028072e+05 1.028298e+05 1.027969e+05 1.028225e+05 1.028196e+05 1.027555e+05 1.027555e+05 1.027260e+05 1.027623e+05 1.027253e+05 1.027854e+05 1.028093e+05 1.028123e+05 1.027684e+05 1.027506e+05 1.027506e+05 1.027506e+05 1.027515e+05 1.027951e+05 1.027895e+05 1.028005e+05 1.028005e+05 1.027772e+05 1.026677e+05 1.026677e+05 1.027757e+05 1.028092e+05 1.027712e+05 1.027502e+05 1.026967e+05 1.026967e+05 1.027809e+05 1.027809e+05 1.027809e+05 1.027196e+05 1.027196e+05 1.027927e+05 1.027231e+05 1.027463e+05 1.026740e+05 1.026740e+05 1.026740e+05 1.027742e+05 1.026800e+05 1.026800e+05 1.027300e+05 1.027460e+05 1.025952e+05 1.025952e+05 1.027163e+05 1.027041e+05 1.027041e+05 1.026058e+05 1.026988e+05 1.027982e+05 1.027281e+05 1.026896e+05 1.027087e+05 1.027087e+05 1.026256e+05 1.026256e+05 1.026256e+05 1.027667e+05 1.026429e+05 1.026558e+05 1.027673e+05 1.027562e+05 1.027062e+05 1.027041e+05 1.026649e+05 1.026527e+05 1.026527e+05 1.027274e+05 1.027274e+05 1.027404e+05 1.027378e+05 1.027783e+05 1.027166e+05 1.026940e+05 1.027527e+05 1.027351e+05 1.026186e+05 1.026412e+05 1.026412e+05 1.026412e+05 1.025684e+05 1.027409e+05 1.026674e+05 1.026674e+05 1.025492e+05 1.026304e+05 1.025071e+05 1.025071e+05 1.025522e+05 1.026204e+05 1.026085e+05 1.026085e+05 1.024768e+05 1.025302e+05 1.025302e+05 1.025972e+05 1.026305e+05 1.025406e+05 1.025103e+05 1.026556e+05 1.026798e+05 1.026723e+05 1.026151e+05 1.026778e+05 1.024671e+05 1.025147e+05 1.025361e+05 1.025226e+05 1.025461e+05 1.026374e+05 1.024002e+05 1.024002e+05 1.023926e+05 1.023926e+05 1.027011e+05 1.024978e+05 1.024978e+05 1.023824e+05 1.023824e+05 1.023801e+05 1.026233e+05 1.022894e+05 1.026059e+05 1.024915e+05 1.024503e+05 1.026138e+05 1.024292e+05 1.026567e+05 1.024817e+05 1.024817e+05 1.023586e+05 1.025542e+05 1.021111e+05 1.021111e+05 1.021803e+05 1.023496e+05 1.025474e+05 1.026706e+05 1.022010e+05 1.025802e+05 1.022987e+05 1.022987e+05 1.022849e+05 1.023071e+05 1.023812e+05 1.022363e+05 1.022303e+05 1.025220e+05 1.022176e+05 1.024215e+05 1.024215e+05 1.024528e+05 1.021617e+05 1.021448e+05 1.027190e+05 1.020414e+05 1.023316e+05 1.019785e+05 1.024748e+05 1.018329e+05 1.018329e+05 1.022694e+05 1.021921e+05 1.025126e+05 1.025126e+05 1.018897e+05 1.018897e+05 1.018897e+05 1.024416e+05 1.021097e+05 1.023611e+05 1.026543e+05 1.022769e+05 1.020621e+05 1.026656e+05 1.020072e+05 1.020072e+05 1.021491e+05 1.025708e+05 1.021175e+05 1.022449e+05 1.020701e+05 1.022362e+05 1.020693e+05 1.020344e+05 1.020344e+05 1.023780e+05 1.023819e+05 1.018262e+05 1.021947e+05 1.023611e+05 1.023611e+05 1.023611e+05 1.022681e+05 1.018125e+05 1.019685e+05 1.019359e+05 1.019359e+05 1.019359e+05 1.017732e+05 1.022724e+05 1.022724e+05 1.018771e+05 1.018475e+05 1.020375e+05 1.019218e+05 1.020040e+05 1.017012e+05 1.014680e+05 1.018028e+05 1.018224e+05 1.023562e+05 1.017598e+05 1.016615e+05 1.023093e+05 1.021600e+05 1.021600e+05 1.019853e+05 1.019853e+05 1.019418e+05 1.020277e+05 1.018588e+05 1.021762e+05 1.020441e+05 1.019365e+05 1.019170e+05 1.015261e+05 1.025802e+05 1.017959e+05 1.018912e+05 1.019479e+05 1.019426e+05 1.017503e+05 1.020760e+05 1.019524e+05 1.019821e+05 1.025198e+05 1.016627e+05 1.014125e+05 1.019424e+05 1.019424e+05 1.017740e+05 1.017740e+05 1.025257e+05 1.025257e+05 1.016540e+05 1.019669e+05 1.020901e+05 1.016302e+05 1.021672e+05 1.022229e+05 1.023162e+05 1.015868e+05 1.021696e+05 1.019393e+05 1.021005e+05 1.018678e+05 1.014525e+05 1.013946e+05 1.014451e+05 1.028320e+05 1.028319e+05 1.028309e+05 1.028266e+05 1.028244e+05 1.028283e+05 1.028283e+05 1.028270e+05 1.028225e+05 1.028211e+05 1.028211e+05 1.028107e+05 1.028117e+05 1.028045e+05 1.028045e+05 1.028002e+05 1.027985e+05 1.027950e+05 1.027877e+05 1.027863e+05 1.027808e+05 1.027756e+05 1.027712e+05 1.027712e+05 1.027623e+05 1.027555e+05 1.027598e+05 1.027540e+05 1.027447e+05 1.027390e+05 1.027348e+05 1.027310e+05 1.027260e+05 1.027260e+05 1.027231e+05 1.027163e+05 1.027041e+05 1.026988e+05 1.026967e+05 1.026892e+05 1.026856e+05 1.026869e+05 1.026799e+05 1.026705e+05 1.026677e+05 1.026675e+05 1.026558e+05 1.026518e+05 1.026498e+05 1.026429e+05 1.026371e+05 1.026315e+05 1.026186e+05 1.026186e+05 1.026058e+05 1.026058e+05 1.025952e+05 1.025818e+05 1.025792e+05 1.025724e+05 1.025582e+05 1.025492e+05 1.025492e+05 1.025406e+05 1.025302e+05 1.025242e+05 1.025071e+05 1.024947e+05 1.024947e+05 1.024768e+05 1.024746e+05 1.024633e+05 1.024488e+05 1.024292e+05 1.024292e+05 1.024175e+05 1.024002e+05 1.023926e+05 1.023824e+05 1.023586e+05 1.023446e+05 1.023446e+05 1.023285e+05 1.023071e+05 1.022849e+05 1.022849e+05 1.022694e+05 1.022363e+05 1.022363e+05 1.022010e+05 1.021803e+05 1.021803e+05 1.021617e+05 1.021448e+05 1.021111e+05 1.021034e+05 1.020621e+05 1.020414e+05 1.020414e+05 1.020072e+05 1.019785e+05 1.019785e+05 1.019555e+05 1.019218e+05 1.019041e+05 1.018529e+05 1.018529e+05 1.018110e+05 1.017732e+05 1.017732e+05 1.017128e+05 1.017020e+05 1.016492e+05 1.016184e+05 1.016184e+05 1.015509e+05 1.015261e+05 1.015141e+05 1.014680e+05 1.014501e+05 1.014125e+05 1.013250e+05 1.013250e+05 1.013250e+05 1.013250e+05 1.013250e+05 1.014795e+05 1.017107e+05 1.021097e+05 1.021708e+05 1.025022e+05 1.026298e+05 1.026298e+05 1.026298e+05 1.025108e+05 1.025108e+05 1.025108e+05 1.025009e+05 1.025009e+05 1.014701e+05 1.014701e+05 1.026820e+05 1.026820e+05 1.026820e+05 1.026802e+05 1.026802e+05 1.027210e+05 1.027210e+05 1.027210e+05 1.027571e+05 1.025022e+05 1.025022e+05 1.024752e+05 1.017219e+05 1.017219e+05 1.017219e+05 1.016961e+05 1.016961e+05 1.017479e+05 1.016565e+05 1.016565e+05 1.017154e+05 1.014795e+05 1.016015e+05 1.016114e+05 1.014452e+05 1.014452e+05 1.014160e+05 1.014160e+05 1.013978e+05 1.013916e+05 1.027671e+05 1.027671e+05 1.027671e+05 1.027460e+05 1.027460e+05 1.027143e+05 1.027456e+05 1.027456e+05 1.027456e+05 1.027448e+05 1.027445e+05 1.026944e+05 1.026840e+05 1.026840e+05 1.027224e+05 1.027391e+05 1.027391e+05 1.027409e+05 1.026662e+05 1.026662e+05 1.026662e+05 1.027732e+05 1.027732e+05 1.027732e+05 1.028150e+05 1.028150e+05 1.028150e+05 1.026417e+05 1.026417e+05 1.026417e+05 1.027689e+05 1.027689e+05 1.027689e+05 1.026956e+05 1.026956e+05 1.026956e+05 1.026942e+05 1.027717e+05 1.027717e+05 1.027408e+05 1.027408e+05 1.027408e+05 1.028102e+05 1.028012e+05 1.027463e+05 1.027463e+05 1.026122e+05 1.026122e+05 1.026122e+05 1.026100e+05 1.026100e+05 1.027653e+05 1.027612e+05 1.027612e+05 1.026977e+05 1.026977e+05 1.026977e+05 1.026157e+05 1.026157e+05 1.027718e+05 1.027718e+05 1.027718e+05 1.027494e+05 1.027905e+05 1.027775e+05 1.027045e+05 1.027045e+05 1.027218e+05 1.027218e+05 1.027218e+05 1.027692e+05 1.027779e+05 1.027779e+05 1.027567e+05 1.027567e+05 1.027567e+05 1.025560e+05 1.025560e+05 1.025560e+05 1.027507e+05 1.027507e+05 1.027507e+05 1.027873e+05 1.027630e+05 1.028273e+05 1.028273e+05 1.028273e+05 1.028258e+05 1.026677e+05 1.026677e+05 1.028155e+05 1.027210e+05 1.027210e+05 1.027210e+05 1.028254e+05 1.028254e+05 1.027180e+05 1.027180e+05 1.027642e+05 1.027642e+05 1.027642e+05 1.028113e+05 1.028113e+05 1.028113e+05 1.028012e+05 1.028012e+05 1.028012e+05 1.028174e+05 1.028174e+05 1.027093e+05 1.027093e+05 1.028160e+05 1.028160e+05 1.028160e+05 1.027127e+05 1.026879e+05 1.026879e+05 1.026879e+05 1.028058e+05 1.027094e+05 1.027094e+05 1.027739e+05 1.027739e+05 1.027739e+05 1.026579e+05 1.026579e+05 1.026579e+05 1.027981e+05 1.027900e+05 1.027900e+05 1.027900e+05 1.028044e+05 1.028044e+05 1.028044e+05 1.028013e+05 1.028084e+05 1.027700e+05 1.027700e+05 1.027700e+05 1.027646e+05 1.027646e+05 1.026614e+05 1.026614e+05 1.026614e+05 1.027974e+05 1.027974e+05 1.027974e+05 1.028053e+05 1.028118e+05 1.027921e+05 1.027921e+05 1.026884e+05 1.026884e+05 1.026884e+05 1.028080e+05 1.028080e+05 1.027774e+05 1.027774e+05 1.027890e+05 1.027905e+05 1.027905e+05 1.027814e+05 1.027814e+05 1.027814e+05 1.027297e+05 1.027880e+05 1.027946e+05 1.027946e+05 1.027119e+05 1.027119e+05 1.027305e+05 1.027305e+05 1.027305e+05 1.027582e+05 1.027582e+05 1.025858e+05 1.025858e+05 1.025858e+05 1.026470e+05 1.026470e+05 1.026470e+05 1.027481e+05 1.027840e+05 1.026760e+05 1.026760e+05 1.026760e+05 1.027625e+05 1.027625e+05 1.027625e+05 1.027727e+05 1.027812e+05 1.027840e+05 1.027523e+05 1.026314e+05 1.026314e+05 1.026314e+05 1.027531e+05 1.027531e+05 1.026100e+05 1.026100e+05 1.026100e+05 1.027374e+05 1.027374e+05 1.027374e+05 1.027439e+05 1.025688e+05 1.025688e+05 1.025688e+05 1.027487e+05 1.027731e+05 1.027731e+05 1.027523e+05 1.026831e+05 1.026831e+05 1.027504e+05 1.027313e+05 1.027313e+05 1.027314e+05 1.027314e+05 1.027349e+05 1.027598e+05 1.026513e+05 1.026513e+05 1.026513e+05 1.027198e+05 1.025719e+05 1.025719e+05 1.027840e+05 1.027152e+05 1.027152e+05 1.027179e+05 1.024502e+05 1.024502e+05 1.024502e+05 1.025941e+05 1.025941e+05 1.027098e+05 1.027098e+05 1.026988e+05 1.026988e+05 1.027431e+05 1.026166e+05 1.026166e+05 1.026166e+05 1.026715e+05 1.026715e+05 1.026715e+05 1.027775e+05 1.026118e+05 1.026118e+05 1.026693e+05 1.026730e+05 1.027544e+05 1.027523e+05 1.027355e+05 1.027355e+05 1.025512e+05 1.025512e+05 1.025512e+05 1.027004e+05 1.023745e+05 1.023745e+05 1.023745e+05 1.026792e+05 1.026792e+05 1.027006e+05 1.027605e+05 1.024562e+05 1.024562e+05 1.024562e+05 1.025362e+05 1.025362e+05 1.025362e+05 1.025010e+05 1.025010e+05 1.025733e+05 1.025733e+05 1.025861e+05 1.025861e+05 1.025937e+05 1.027580e+05 1.027580e+05 1.027055e+05 1.027055e+05 1.026547e+05 1.026547e+05 1.027369e+05 1.023850e+05 1.023546e+05 1.023546e+05 1.023546e+05 1.026664e+05 1.025393e+05 1.025393e+05 1.026520e+05 1.026520e+05 1.028201e+05 1.027425e+05 1.027019e+05 1.026055e+05 1.026055e+05 1.025960e+05 1.025960e+05 1.027041e+05 1.023068e+05 1.023068e+05 1.023068e+05 1.022144e+05 1.022144e+05 1.022144e+05 1.026318e+05 1.026318e+05 1.026318e+05 1.026709e+05 1.026709e+05 1.016655e+05 1.016655e+05 1.016655e+05 1.023536e+05 1.023536e+05 1.023536e+05 1.025461e+05 1.022807e+05 1.022807e+05 1.022807e+05 1.025347e+05 1.025347e+05 1.026270e+05 1.023257e+05 1.023257e+05 1.020132e+05 1.020132e+05 1.020132e+05 1.026504e+05 1.026504e+05 1.025815e+05 1.025815e+05 1.025171e+05 1.025171e+05 1.025171e+05 1.020870e+05 1.020870e+05 1.020870e+05 1.026667e+05 1.020935e+05 1.020935e+05 1.020935e+05 1.016150e+05 1.016150e+05 1.016150e+05 1.024130e+05 1.024130e+05 1.024130e+05 1.024496e+05 1.024856e+05 1.024856e+05 1.024889e+05 1.026129e+05 1.026129e+05 1.016301e+05 1.025448e+05 1.025448e+05 1.025448e+05 1.020229e+05 1.020229e+05 1.020229e+05 1.024209e+05 1.024209e+05 1.024209e+05 1.023169e+05 1.023169e+05 1.