<?xml version="1.0"?>
 <VTKFile type="UnstructuredGrid" version="1.0" byte_order="LittleEndian" header_type="UInt64">
  <UnstructuredGrid>
    <FieldData>
     <DataArray type="Float64" Name="TimeValue" NumberOfTuples="1" format="ascii">
2e-05
     </DataArray>
    </FieldData>
   <Piece NumberOfPoints="3662" NumberOfCells="3444">
    <PointData>
     <DataArray type="Float64" Name="pointP" format="ascii">
1.038752e+05 1.038813e+05 1.038730e+05 1.038727e+05 1.038766e+05 1.038572e+05 1.038583e+05 1.038514e+05 1.038416e+05 1.038278e+05 1.038118e+05 1.038001e+05 1.037886e+05 1.037707e+05 1.037688e+05 1.037795e+05 1.037542e+05 1.037489e+05 1.037480e+05 1.037386e+05 1.037364e+05 1.037217e+05 1.037495e+05 1.036912e+05 1.036910e+05 1.036612e+05 1.036392e+05 1.036152e+05 1.035918e+05 1.035670e+05 1.035373e+05 1.035273e+05 1.034848e+05 1.034650e+05 1.034350e+05 1.033959e+05 1.033729e+05 1.033371e+05 1.032999e+05 1.032735e+05 1.032657e+05 1.032441e+05 1.031993e+05 1.031586e+05 1.031481e+05 1.031258e+05 1.031030e+05 1.030874e+05 1.030532e+05 1.030263e+05 1.029919e+05 1.029481e+05 1.029060e+05 1.028503e+05 1.028237e+05 1.027789e+05 1.027212e+05 1.026922e+05 1.026559e+05 1.026306e+05 1.026190e+05 1.025805e+05 1.025596e+05 1.025328e+05 1.025346e+05 1.024782e+05 1.024375e+05 1.024193e+05 1.023920e+05 1.023435e+05 1.022888e+05 1.022715e+05 1.022244e+05 1.021905e+05 1.021523e+05 1.021389e+05 1.020963e+05 1.020826e+05 1.020504e+05 1.020270e+05 1.020053e+05 1.019792e+05 1.019432e+05 1.019242e+05 1.019080e+05 1.018905e+05 1.018727e+05 1.018524e+05 1.018373e+05 1.018252e+05 1.017989e+05 1.017918e+05 1.017632e+05 1.017566e+05 1.017471e+05 1.017263e+05 1.017321e+05 1.017232e+05 1.017133e+05 1.017046e+05 1.017110e+05 1.017126e+05 1.016972e+05 1.017000e+05 1.016866e+05 1.017022e+05 1.016955e+05 1.016774e+05 1.016946e+05 1.016797e+05 1.016903e+05 1.016973e+05 1.016850e+05 1.016884e+05 1.016910e+05 1.016804e+05 1.017038e+05 1.017074e+05 1.017093e+05 1.017236e+05 1.017400e+05 1.017540e+05 1.017739e+05 1.017739e+05 1.026898e+05 1.027577e+05 1.027802e+05 1.027844e+05 1.027916e+05 1.028017e+05 1.028083e+05 1.028083e+05 1.028095e+05 1.028131e+05 1.028198e+05 1.028198e+05 1.028334e+05 1.028334e+05 1.028552e+05 1.028657e+05 1.028795e+05 1.028794e+05 1.029019e+05 1.029515e+05 1.029515e+05 1.030034e+05 1.030034e+05 1.030305e+05 1.030398e+05 1.031087e+05 1.031186e+05 1.031237e+05 1.031934e+05 1.032237e+05 1.032279e+05 1.032600e+05 1.033236e+05 1.033573e+05 1.033791e+05 1.034504e+05 1.034847e+05 1.034847e+05 1.034819e+05 1.035623e+05 1.035623e+05 1.036727e+05 1.036181e+05 1.036181e+05 1.036837e+05 1.037449e+05 1.037449e+05 1.037590e+05 1.037784e+05 1.037913e+05 1.037913e+05 1.038366e+05 1.038337e+05 1.038488e+05 1.038774e+05 1.038519e+05 1.026963e+05 1.029927e+05 1.029927e+05 1.029927e+05 1.030296e+05 1.028162e+05 1.028162e+05 1.028162e+05 1.028508e+05 1.028508e+05 1.030378e+05 1.030378e+05 1.030378e+05 1.030514e+05 1.030107e+05 1.027393e+05 1.028923e+05 1.028923e+05 1.028992e+05 1.029850e+05 1.029850e+05 1.029850e+05 1.029796e+05 1.029622e+05 1.026878e+05 1.026878e+05 1.026878e+05 1.026668e+05 1.027644e+05 1.027644e+05 1.027644e+05 1.027674e+05 1.027597e+05 1.027597e+05 1.029700e+05 1.029700e+05 1.029084e+05 1.028659e+05 1.026963e+05 1.026963e+05 1.027947e+05 1.027947e+05 1.027947e+05 1.027851e+05 1.027803e+05 1.027803e+05 1.027786e+05 1.028718e+05 1.028718e+05 1.028718e+05 1.028907e+05 1.028944e+05 1.029019e+05 1.029169e+05 1.028229e+05 1.028229e+05 1.028229e+05 1.028074e+05 1.027926e+05 1.027680e+05 1.026946e+05 1.027680e+05 1.032727e+05 1.032727e+05 1.032727e+05 1.033822e+05 1.033822e+05 1.033822e+05 1.033328e+05 1.022080e+05 1.021983e+05 1.022080e+05 1.022080e+05 1.026985e+05 1.026985e+05 1.026985e+05 1.026762e+05 1.031365e+05 1.031365e+05 1.031365e+05 1.031457e+05 1.034229e+05 1.034229e+05 1.034229e+05 1.033926e+05 1.033926e+05 1.019281e+05 1.019281e+05 1.019281e+05 1.019265e+05 1.019287e+05 1.019287e+05 1.019287e+05 1.019384e+05 1.019384e+05 1.037606e+05 1.037606e+05 1.037606e+05 1.037732e+05 1.020957e+05 1.020957e+05 1.020957e+05 1.021472e+05 1.021472e+05 1.019221e+05 1.019689e+05 1.032957e+05 1.032957e+05 1.032957e+05 1.033000e+05 1.034831e+05 1.034831e+05 1.034831e+05 1.035215e+05 1.035215e+05 1.021114e+05 1.021114e+05 1.021114e+05 1.021249e+05 1.033613e+05 1.033613e+05 1.033613e+05 1.033843e+05 1.016884e+05 1.025643e+05 1.025643e+05 1.025643e+05 1.021972e+05 1.021972e+05 1.021972e+05 1.021754e+05 1.019841e+05 1.019841e+05 1.019841e+05 1.019361e+05 1.017232e+05 1.017499e+05 1.017499e+05 1.017499e+05 1.017466e+05 1.019026e+05 1.019026e+05 1.019026e+05 1.019577e+05 1.019577e+05 1.019689e+05 1.019689e+05 1.019221e+05 1.035059e+05 1.035059e+05 1.035059e+05 1.035044e+05 1.035044e+05 1.021787e+05 1.022197e+05 1.022197e+05 1.032648e+05 1.032648e+05 1.032648e+05 1.032690e+05 1.032690e+05 1.033151e+05 1.033151e+05 1.033151e+05 1.033202e+05 1.023971e+05 1.023493e+05 1.023971e+05 1.023971e+05 1.025726e+05 1.028879e+05 1.028879e+05 1.028879e+05 1.028469e+05 1.028828e+05 1.029239e+05 1.029239e+05 1.027826e+05 1.027826e+05 1.027999e+05 1.027999e+05 1.030284e+05 1.030284e+05 1.030284e+05 1.030617e+05 1.030617e+05 1.027919e+05 1.027919e+05 1.027919e+05 1.028093e+05 1.028231e+05 1.028234e+05 1.028121e+05 1.031578e+05 1.031578e+05 1.031578e+05 1.031467e+05 1.032316e+05 1.032316e+05 1.032316e+05 1.032004e+05 1.028461e+05 1.028461e+05 1.028461e+05 1.034755e+05 1.034755e+05 1.034755e+05 1.024793e+05 1.024793e+05 1.024793e+05 1.035786e+05 1.035786e+05 1.035786e+05 1.021339e+05 1.021339e+05 1.021339e+05 1.022281e+05 1.021671e+05 1.023152e+05 1.023152e+05 1.023152e+05 1.021519e+05 1.021519e+05 1.022021e+05 1.025110e+05 1.025110e+05 1.025110e+05 1.025367e+05 1.022309e+05 1.022309e+05 1.022309e+05 1.022346e+05 1.022098e+05 1.022098e+05 1.037775e+05 1.037775e+05 1.037775e+05 1.037604e+05 1.020358e+05 1.020358e+05 1.020358e+05 1.020664e+05 1.020094e+05 1.020094e+05 1.020094e+05 1.020418e+05 1.035270e+05 1.035270e+05 1.035270e+05 1.025457e+05 1.025457e+05 1.025457e+05 1.025826e+05 1.020022e+05 1.020022e+05 1.020022e+05 1.020274e+05 1.018885e+05 1.018885e+05 1.018885e+05 1.019482e+05 1.021133e+05 1.021133e+05 1.021133e+05 1.021253e+05 1.038305e+05 1.038305e+05 1.038305e+05 1.036283e+05 1.036283e+05 1.036283e+05 1.036321e+05 1.034687e+05 1.034687e+05 1.034687e+05 1.034189e+05 1.032395e+05 1.032395e+05 1.032547e+05 1.022790e+05 1.022790e+05 1.022817e+05 1.017015e+05 1.017015e+05 1.017371e+05 1.019010e+05 1.019010e+05 1.019010e+05 1.019161e+05 1.020678e+05 1.020678e+05 1.020678e+05 1.035951e+05 1.035951e+05 1.036028e+05 1.021383e+05 1.021383e+05 1.021116e+05 1.019174e+05 1.033600e+05 1.033500e+05 1.017462e+05 1.017462e+05 1.017085e+05 1.037507e+05 1.037507e+05 1.037507e+05 1.037413e+05 1.020108e+05 1.020108e+05 1.031300e+05 1.031300e+05 1.031300e+05 1.038252e+05 1.038252e+05 1.038252e+05 1.038082e+05 1.038082e+05 1.037376e+05 1.037376e+05 1.037376e+05 1.037401e+05 1.035609e+05 1.035609e+05 1.035609e+05 1.035714e+05 1.035714e+05 1.018582e+05 1.018582e+05 1.018582e+05 1.018764e+05 1.018764e+05 1.037773e+05 1.037773e+05 1.038071e+05 1.038071e+05 1.038001e+05 1.038001e+05 1.038001e+05 1.033634e+05 1.033634e+05 1.033634e+05 1.033758e+05 1.018722e+05 1.018722e+05 1.018722e+05 1.018124e+05 1.018124e+05 1.019266e+05 1.019266e+05 1.019266e+05 1.019168e+05 1.019168e+05 1.022023e+05 1.022023e+05 1.022023e+05 1.022450e+05 1.022450e+05 1.027282e+05 1.027282e+05 1.027282e+05 1.027909e+05 1.027909e+05 1.031147e+05 1.031147e+05 1.031147e+05 1.031358e+05 1.035563e+05 1.035563e+05 1.036331e+05 1.036331e+05 1.036331e+05 1.035851e+05 1.035851e+05 1.024057e+05 1.024057e+05 1.024057e+05 1.023712e+05 1.023712e+05 1.025721e+05 1.025721e+05 1.025721e+05 1.025231e+05 1.025231e+05 1.026274e+05 1.026274e+05 1.026748e+05 1.026748e+05 1.029122e+05 1.029122e+05 1.030061e+05 1.030061e+05 1.026728e+05 1.027220e+05 1.027220e+05 1.030082e+05 1.030082e+05 1.030082e+05 1.030480e+05 1.030480e+05 1.029573e+05 1.029573e+05 1.027954e+05 1.027954e+05 1.027954e+05 1.028170e+05 1.029064e+05 1.027627e+05 1.028532e+05 1.027897e+05 1.027897e+05 1.027897e+05 1.027958e+05 1.027958e+05 1.024898e+05 1.024898e+05 1.024966e+05 1.024898e+05 1.025186e+05 1.034614e+05 1.034614e+05 1.034614e+05 1.034102e+05 1.036802e+05 1.036802e+05 1.036566e+05 1.018601e+05 1.018601e+05 1.018601e+05 1.017572e+05 1.017572e+05 1.017572e+05 1.017615e+05 1.017953e+05 1.037031e+05 1.037031e+05 1.037031e+05 1.019877e+05 1.017074e+05 1.017032e+05 1.017032e+05 1.034122e+05 1.034122e+05 1.024375e+05 1.024587e+05 1.024587e+05 1.024587e+05 1.026381e+05 1.026381e+05 1.026381e+05 1.026055e+05 1.038730e+05 1.038909e+05 1.038909e+05 1.038151e+05 1.038151e+05 1.038151e+05 1.037838e+05 1.017449e+05 1.017449e+05 1.017551e+05 1.017263e+05 1.038449e+05 1.038449e+05 1.036702e+05 1.036702e+05 1.017842e+05 1.017842e+05 1.017449e+05 1.017449e+05 1.017449e+05 1.037412e+05 1.037412e+05 1.037607e+05 1.017974e+05 1.017974e+05 1.017845e+05 1.035653e+05 1.037359e+05 1.037224e+05 1.037224e+05 1.037296e+05 1.024212e+05 1.024212e+05 1.024212e+05 1.024059e+05 1.029481e+05 1.029613e+05 1.038727e+05 1.038600e+05 1.031941e+05 1.031941e+05 1.030430e+05 1.030430e+05 1.030430e+05 1.030225e+05 1.017656e+05 1.017656e+05 1.017837e+05 1.017837e+05 1.022216e+05 1.037124e+05 1.037124e+05 1.037228e+05 1.025862e+05 1.025862e+05 1.025862e+05 1.016973e+05 1.038514e+05 1.037990e+05 1.028046e+05 1.028046e+05 1.028046e+05 1.027725e+05 1.017314e+05 1.017314e+05 1.017517e+05 1.027484e+05 1.027484e+05 1.026963e+05 1.017413e+05 1.017413e+05 1.018500e+05 1.018500e+05 1.037929e+05 1.032999e+05 1.033141e+05 1.026778e+05 1.037852e+05 1.037852e+05 1.030769e+05 1.017171e+05 1.017300e+05 1.017300e+05 1.017309e+05 1.017309e+05 1.017843e+05 1.017843e+05 1.037086e+05 1.037086e+05 1.024716e+05 1.037714e+05 1.023525e+05 1.023525e+05 1.023896e+05 1.028656e+05 1.028656e+05 1.028656e+05 1.039143e+05 1.039143e+05 1.020115e+05 1.017603e+05 1.017603e+05 1.029479e+05 1.029157e+05 1.031289e+05 1.021771e+05 1.017540e+05 1.017400e+05 1.037325e+05 1.026217e+05 1.018422e+05 1.018422e+05 1.018422e+05 1.018746e+05 1.036612e+05 1.018188e+05 1.017810e+05 1.017810e+05 1.030874e+05 1.029927e+05 1.017552e+05 1.017552e+05 1.037427e+05 1.037427e+05 1.018310e+05 1.018310e+05 1.018024e+05 1.025877e+05 1.025877e+05 1.018369e+05 1.018259e+05 1.019606e+05 1.019254e+05 1.025439e+05 1.025439e+05 1.025143e+05 1.025143e+05 1.017515e+05 1.019962e+05 1.038292e+05 1.017542e+05 1.019402e+05 1.030561e+05 1.034601e+05 1.018472e+05 1.017930e+05 1.018127e+05 1.018169e+05 1.030411e+05 1.030339e+05 1.038390e+05 1.038390e+05 1.025326e+05 1.025582e+05 1.032242e+05 1.017707e+05 1.035153e+05 1.035153e+05 1.031859e+05 1.031859e+05 1.031859e+05 1.019505e+05 1.024854e+05 1.017617e+05 1.036215e+05 1.036397e+05 1.036689e+05 1.036689e+05 1.036689e+05 1.029560e+05 1.029560e+05 1.029560e+05 1.029336e+05 1.037940e+05 1.024653e+05 1.024885e+05 1.020005e+05 1.020005e+05 1.020005e+05 1.031494e+05 1.031494e+05 1.031494e+05 1.031432e+05 1.027442e+05 1.027442e+05 1.027749e+05 1.022565e+05 1.022856e+05 1.017821e+05 1.018260e+05 1.018198e+05 1.018198e+05 1.018161e+05 1.018324e+05 1.018324e+05 1.018743e+05 1.018743e+05 1.018188e+05 1.037372e+05 1.019568e+05 1.038477e+05 1.038604e+05 1.037715e+05 1.037715e+05 1.037725e+05 1.037725e+05 1.031389e+05 1.032153e+05 1.021894e+05 1.037119e+05 1.037119e+05 1.032394e+05 1.032394e+05 1.036118e+05 1.020852e+05 1.020852e+05 1.020852e+05 1.033928e+05 1.020491e+05 1.017937e+05 1.017937e+05 1.017937e+05 1.018409e+05 1.018409e+05 1.028246e+05 1.028641e+05 1.038506e+05 1.038506e+05 1.038519e+05 1.018640e+05 1.019012e+05 1.026778e+05 1.026778e+05 1.026051e+05 1.030026e+05 1.037245e+05 1.018630e+05 1.018630e+05 1.018630e+05 1.018643e+05 1.038515e+05 1.038515e+05 1.038478e+05 1.037536e+05 1.037565e+05 1.037565e+05 1.019415e+05 1.019415e+05 1.019415e+05 1.018150e+05 1.017933e+05 1.018750e+05 1.018976e+05 1.018976e+05 1.023807e+05 1.022415e+05 1.022415e+05 1.022998e+05 1.033311e+05 1.032753e+05 1.032753e+05 1.037463e+05 1.037463e+05 1.019118e+05 1.025550e+05 1.025550e+05 1.020016e+05 1.020446e+05 1.020446e+05 1.021367e+05 1.021691e+05 1.024448e+05 1.036709e+05 1.019127e+05 1.019127e+05 1.019127e+05 1.018453e+05 1.037352e+05 1.037284e+05 1.021775e+05 1.021775e+05 1.036854e+05 1.036854e+05 1.036854e+05 1.029598e+05 1.029598e+05 1.029598e+05 1.026016e+05 1.018563e+05 1.028273e+05 1.028273e+05 1.028273e+05 1.019173e+05 1.038353e+05 1.019207e+05 1.019126e+05 1.023834e+05 1.024591e+05 1.024591e+05 1.026753e+05 1.022982e+05 1.037909e+05 1.038346e+05 1.038346e+05 1.021854e+05 1.035366e+05 1.035366e+05 1.034734e+05 1.034723e+05 1.036590e+05 1.036404e+05 1.036404e+05 1.034073e+05 1.028130e+05 1.028130e+05 1.027547e+05 1.027547e+05 1.035889e+05 1.035889e+05 1.035574e+05 1.035574e+05 1.022152e+05 1.038263e+05 1.038115e+05 1.023736e+05 1.023736e+05 1.031339e+05 1.019732e+05 1.032052e+05 1.034561e+05 1.031119e+05 1.031119e+05 1.021093e+05 1.018959e+05 1.029073e+05 1.036646e+05 1.036884e+05 1.036884e+05 1.019658e+05 1.030113e+05 1.030113e+05 1.030158e+05 1.022816e+05 1.022816e+05 1.022816e+05 1.020492e+05 1.027371e+05 1.019982e+05 1.019982e+05 1.019360e+05 1.032186e+05 1.032186e+05 1.029464e+05 1.037383e+05 1.037383e+05 1.037383e+05 1.025743e+05 1.037642e+05 1.026504e+05 1.032116e+05 1.030379e+05 1.023577e+05 1.024162e+05 1.024162e+05 1.019520e+05 1.019825e+05 1.019825e+05 1.019667e+05 1.019877e+05 1.019833e+05 1.020214e+05 1.020214e+05 1.037830e+05 1.037830e+05 1.037830e+05 1.036113e+05 1.036101e+05 1.036101e+05 1.020569e+05 1.037141e+05 1.031512e+05 1.024325e+05 1.024325e+05 1.020274e+05 1.020274e+05 1.019573e+05 1.038102e+05 1.038102e+05 1.020967e+05 1.033238e+05 1.032843e+05 1.032843e+05 1.026650e+05 1.026650e+05 1.033221e+05 1.033221e+05 1.023091e+05 1.022530e+05 1.019555e+05 1.031075e+05 1.037987e+05 1.037987e+05 1.036413e+05 1.029833e+05 1.029833e+05 1.029327e+05 1.029327e+05 1.020463e+05 1.023507e+05 1.020307e+05 1.019690e+05 1.025901e+05 1.025573e+05 1.019810e+05 1.028314e+05 1.028314e+05 1.028314e+05 1.036760e+05 1.036760e+05 1.037149e+05 1.020846e+05 1.020846e+05 1.020846e+05 1.020648e+05 1.020648e+05 1.033816e+05 1.033816e+05 1.034092e+05 1.037073e+05 1.037234e+05 1.022923e+05 1.035984e+05 1.035984e+05 1.035905e+05 1.025125e+05 1.036601e+05 1.036601e+05 1.027335e+05 1.021202e+05 1.021202e+05 1.021202e+05 1.020908e+05 1.030393e+05 1.020755e+05 1.020902e+05 1.021031e+05 1.020300e+05 1.030425e+05 1.028832e+05 1.021004e+05 1.037365e+05 1.037168e+05 1.037168e+05 1.037168e+05 1.037531e+05 1.021060e+05 1.037271e+05 1.034744e+05 1.035079e+05 1.028961e+05 1.028961e+05 1.028961e+05 1.023847e+05 1.023847e+05 1.023847e+05 1.024134e+05 1.024134e+05 1.037375e+05 1.036944e+05 1.036944e+05 1.036944e+05 1.025111e+05 1.033776e+05 1.033776e+05 1.033776e+05 1.024581e+05 1.030356e+05 1.030356e+05 1.030356e+05 1.021063e+05 1.021063e+05 1.021063e+05 1.020425e+05 1.022560e+05 1.035618e+05 1.035618e+05 1.032904e+05 1.036998e+05 1.023086e+05 1.022982e+05 1.022982e+05 1.022982e+05 1.027394e+05 1.035097e+05 1.034670e+05 1.021476e+05 1.021574e+05 1.025925e+05 1.022418e+05 1.036746e+05 1.036746e+05 1.036850e+05 1.036360e+05 1.031902e+05 1.025902e+05 1.036337e+05 1.023595e+05 1.023595e+05 1.024127e+05 1.027277e+05 1.024641e+05 1.024641e+05 1.024148e+05 1.023779e+05 1.021652e+05 1.021652e+05 1.029990e+05 1.029990e+05 1.030507e+05 1.030275e+05 1.035429e+05 1.035363e+05 1.026237e+05 1.026699e+05 1.032511e+05 1.037044e+05 1.037417e+05 1.022108e+05 1.023148e+05 1.023148e+05 1.023148e+05 1.036071e+05 1.036071e+05 1.028852e+05 1.028852e+05 1.028894e+05 1.034995e+05 1.032109e+05 1.032140e+05 1.032140e+05 1.024092e+05 1.024092e+05 1.023706e+05 1.022670e+05 1.022670e+05 1.025346e+05 1.022320e+05 1.022975e+05 1.024234e+05 1.024346e+05 1.024583e+05 1.025049e+05 1.033185e+05 1.030385e+05 1.030385e+05 1.030385e+05 1.030879e+05 1.035518e+05 1.036708e+05 1.026710e+05 1.036111e+05 1.029681e+05 1.029681e+05 1.030764e+05 1.028246e+05 1.028246e+05 1.028408e+05 1.028408e+05 1.025534e+05 1.025779e+05 1.024858e+05 1.022708e+05 1.027149e+05 1.023970e+05 1.029921e+05 1.029921e+05 1.026805e+05 1.026805e+05 1.026805e+05 1.026321e+05 1.035607e+05 1.035540e+05 1.025982e+05 1.023578e+05 1.025190e+05 1.031557e+05 1.027763e+05 1.027763e+05 1.030581e+05 1.030581e+05 1.024962e+05 1.024962e+05 1.029231e+05 1.035142e+05 1.034295e+05 1.034295e+05 1.033697e+05 1.024438e+05 1.030255e+05 1.035213e+05 1.026002e+05 1.026002e+05 1.026276e+05 1.027814e+05 1.028198e+05 1.034087e+05 1.034087e+05 1.026934e+05 1.026934e+05 1.025842e+05 1.025624e+05 1.025624e+05 1.027955e+05 1.032893e+05 1.025348e+05 1.029888e+05 1.032150e+05 1.033901e+05 1.025159e+05 1.026807e+05 1.030998e+05 1.030998e+05 1.032756e+05 1.025773e+05 1.025726e+05 1.026285e+05 1.026285e+05 1.026285e+05 1.026605e+05 1.028246e+05 1.028246e+05 1.032875e+05 1.032875e+05 1.032098e+05 1.032098e+05 1.028598e+05 1.026607e+05 1.026442e+05 1.030320e+05 1.030320e+05 1.030320e+05 1.029792e+05 1.027373e+05 1.027373e+05 1.030574e+05 1.030574e+05 1.028576e+05 1.028576e+05 1.028811e+05 1.026934e+05 1.026934e+05 1.026934e+05 1.026738e+05 1.028518e+05 1.027996e+05 1.027996e+05 1.026311e+05 1.027428e+05 1.027680e+05 1.027130e+05 1.027067e+05 1.027067e+05 1.027492e+05 1.031378e+05 1.027711e+05 1.027819e+05 1.028321e+05 1.027199e+05 1.027199e+05 1.029718e+05 1.029513e+05 1.031180e+05 1.027395e+05 1.027395e+05 1.026748e+05 1.031087e+05 1.031087e+05 1.030289e+05 1.027951e+05 1.027804e+05 1.027804e+05 1.027804e+05 1.027662e+05 1.029571e+05 1.027880e+05 1.027952e+05 1.028671e+05 1.027880e+05 1.028277e+05 1.028436e+05 1.028436e+05 1.028234e+05 1.028346e+05 1.027698e+05 1.027874e+05 1.027813e+05 1.027813e+05 1.027813e+05 1.027747e+05 1.028281e+05 1.028281e+05 1.028281e+05 1.027690e+05 1.027690e+05 1.028284e+05 1.027785e+05 1.027517e+05 1.028232e+05 1.027680e+05 1.028169e+05 1.027619e+05 1.027542e+05 1.027953e+05 1.027953e+05 1.027857e+05 1.027857e+05 1.027515e+05 1.027914e+05 1.027914e+05 1.027914e+05 1.027902e+05 1.027902e+05 1.027574e+05 1.027574e+05 1.027574e+05 1.034047e+05 1.034448e+05 1.034448e+05 1.034448e+05 1.027393e+05 1.027393e+05 1.033863e+05 1.033863e+05 1.033863e+05 1.034590e+05 1.034590e+05 1.027651e+05 1.027135e+05 1.033743e+05 1.033743e+05 1.033344e+05 1.027775e+05 1.034686e+05 1.034647e+05 1.034701e+05 1.027627e+05 1.027239e+05 1.027289e+05 1.028158e+05 1.028158e+05 1.028378e+05 1.037977e+05 1.030981e+05 1.030981e+05 1.030981e+05 1.030164e+05 1.032733e+05 1.032733e+05 1.032733e+05 1.032975e+05 1.032716e+05 1.032716e+05 1.036838e+05 1.031367e+05 1.031367e+05 1.031367e+05 1.031808e+05 1.028925e+05 1.037630e+05 1.037630e+05 1.037630e+05 1.032815e+05 1.036601e+05 1.036601e+05 1.035434e+05 1.035434e+05 1.035434e+05 1.031962e+05 1.031962e+05 1.031962e+05 1.033182e+05 1.032155e+05 1.032155e+05 1.031457e+05 1.033398e+05 1.031003e+05 1.032059e+05 1.032175e+05 1.030849e+05 1.030739e+05 1.029823e+05 1.030875e+05 1.029461e+05 1.029181e+05 1.029605e+05 1.029605e+05 1.029075e+05 1.029075e+05 1.029075e+05 1.028083e+05 1.037514e+05 1.033447e+05 1.033447e+05 1.032266e+05 1.031941e+05 1.030872e+05 1.030872e+05 1.036078e+05 1.036078e+05 1.035085e+05 1.035085e+05 1.033765e+05 1.033123e+05 1.031295e+05 1.030579e+05 1.029217e+05 1.029217e+05 1.028100e+05 1.028426e+05 1.037198e+05 1.037198e+05 1.030821e+05 1.029328e+05 1.029328e+05 1.030127e+05 1.029241e+05 1.028915e+05 1.028544e+05 1.028544e+05 1.028544e+05 1.028680e+05 1.028680e+05 1.028408e+05 1.028392e+05 1.028392e+05 1.028392e+05 1.029156e+05 1.029156e+05 1.028055e+05 1.028362e+05 1.028362e+05 1.028209e+05 1.028194e+05 1.028194e+05 1.027712e+05 1.027913e+05 1.027933e+05 1.028182e+05 1.028182e+05 1.028182e+05 1.028338e+05 1.028533e+05 1.027634e+05 1.028253e+05 1.034225e+05 1.027799e+05 1.027650e+05 1.028005e+05 1.028017e+05 1.034988e+05 1.035970e+05 1.035970e+05 1.036296e+05 1.036296e+05 1.036831e+05 1.036831e+05 1.036831e+05 1.037253e+05 1.037490e+05 1.037490e+05 1.037490e+05 1.038127e+05 1.028093e+05 1.028203e+05 1.028203e+05 1.028203e+05 1.028461e+05 1.028523e+05 1.028622e+05 1.030536e+05 1.028576e+05 1.028777e+05 1.028840e+05 1.028841e+05 1.029046e+05 1.028955e+05 1.028725e+05 1.028303e+05 1.028465e+05 1.028330e+05 1.028330e+05 1.028169e+05 1.028169e+05 1.028507e+05 1.028324e+05 1.028116e+05 1.028126e+05 1.034819e+05 1.035613e+05 1.037282e+05 1.038597e+05 1.038752e+05 1.038846e+05 1.038738e+05 1.038681e+05 1.038732e+05 1.038706e+05 1.038659e+05 1.038734e+05 1.038717e+05 1.038606e+05 1.038506e+05 1.027595e+05 1.027595e+05 1.027824e+05 1.027824e+05 1.027860e+05 1.027977e+05 1.028075e+05 1.028075e+05 1.028075e+05 1.028081e+05 1.028038e+05 1.028038e+05 1.027795e+05 1.027795e+05 1.027795e+05 1.028920e+05 1.028920e+05 1.028920e+05 1.029094e+05 1.029094e+05 1.027826e+05 1.027826e+05 1.027826e+05 1.027976e+05 1.027595e+05 1.027759e+05 1.027759e+05 1.028039e+05 1.028739e+05 1.028739e+05 1.038550e+05 1.038550e+05 1.038550e+05 1.038843e+05 1.038843e+05 1.027976e+05 1.028146e+05 1.028146e+05 1.038311e+05 1.038311e+05 1.038498e+05 1.036659e+05 1.036659e+05 1.036659e+05 1.033793e+05 1.033793e+05 1.033793e+05 1.032922e+05 1.032922e+05 1.028333e+05 1.038156e+05 1.038156e+05 1.038156e+05 1.037991e+05 1.038671e+05 1.038671e+05 1.038671e+05 1.038571e+05 1.038577e+05 1.038325e+05 1.038325e+05 1.038325e+05 1.038829e+05 1.038132e+05 1.038132e+05 1.038132e+05 1.038649e+05 1.035001e+05 1.035608e+05 1.035001e+05 1.035001e+05 1.029108e+05 1.029108e+05 1.027764e+05 1.036688e+05 1.036688e+05 1.038181e+05 1.038606e+05 1.038939e+05 1.038939e+05 1.038649e+05 1.038488e+05 1.038337e+05 1.038590e+05 1.038602e+05 1.038410e+05 1.038410e+05 1.038255e+05 1.038369e+05 1.038384e+05 1.038255e+05 1.038409e+05 1.038113e+05 1.038113e+05 1.038183e+05 1.038183e+05 1.038154e+05 1.038132e+05 1.038193e+05 1.038077e+05 1.038077e+05 1.037918e+05 1.038173e+05 1.037751e+05 1.037474e+05 1.037474e+05 1.035608e+05 1.034658e+05 1.034658e+05 1.034119e+05 1.034119e+05 1.033094e+05 1.033167e+05 1.031833e+05 1.029075e+05 1.027764e+05 1.027764e+05 1.028318e+05 1.028318e+05 1.028318e+05 1.028315e+05 1.027933e+05 1.028395e+05 1.028395e+05 1.028395e+05 1.028481e+05 1.028851e+05 1.028851e+05 1.028851e+05 1.028769e+05 1.028657e+05 1.030011e+05 1.030011e+05 1.030011e+05 1.030268e+05 1.031361e+05 1.031361e+05 1.031361e+05 1.031302e+05 1.031016e+05 1.030216e+05 1.030216e+05 1.030411e+05 1.033094e+05 1.033094e+05 1.033094e+05 1.033573e+05 1.033573e+05 1.032864e+05 1.032864e+05 1.032864e+05 1.029072e+05 1.029072e+05 1.032325e+05 1.032325e+05 1.032325e+05 1.032089e+05 1.032089e+05 1.035535e+05 1.035535e+05 1.035535e+05 1.034244e+05 1.034244e+05 1.034244e+05 1.031952e+05 1.031952e+05 1.031952e+05 1.028980e+05 1.034089e+05 1.033887e+05 1.032464e+05 1.032279e+05 1.035275e+05 1.034407e+05 1.034407e+05 1.031641e+05 1.031641e+05 1.032295e+05 1.031699e+05 1.033242e+05 1.033242e+05 1.033242e+05 1.035412e+05 1.036688e+05 1.032078e+05 1.030853e+05 1.030853e+05 1.030853e+05 1.032964e+05 1.031572e+05 1.030766e+05 1.030345e+05 1.029909e+05 1.031045e+05 1.029795e+05 1.029659e+05 1.029645e+05 1.029645e+05 1.028067e+05 1.036837e+05 1.036837e+05 1.034081e+05 1.031087e+05 1.031087e+05 1.033295e+05 1.037535e+05 1.030344e+05 1.030344e+05 1.029302e+05 1.029302e+05 1.029302e+05 1.032552e+05 1.034472e+05 1.029568e+05 1.030047e+05 1.029397e+05 1.029035e+05 1.029083e+05 1.029083e+05 1.029083e+05 1.028537e+05 1.028537e+05 1.028983e+05 1.028845e+05 1.028845e+05 1.028587e+05 1.028767e+05 1.028333e+05 1.028345e+05 1.028345e+05 1.028102e+05 1.028077e+05 1.034153e+05 1.036559e+05 1.036559e+05 1.037347e+05 1.037347e+05 1.035775e+05 1.027871e+05 1.031186e+05 1.033884e+05 1.034847e+05 1.034885e+05 1.035369e+05 1.035369e+05 1.036003e+05 1.036003e+05 1.036003e+05 1.036599e+05 1.037239e+05 1.037449e+05 1.037590e+05 1.037590e+05 1.037708e+05 1.038242e+05 1.029515e+05 1.030034e+05 1.035284e+05 1.037784e+05 1.030305e+05 1.030290e+05 1.029354e+05 1.029019e+05 1.029647e+05 1.029087e+05 1.028552e+05 1.029718e+05 1.028622e+05 1.028622e+05 1.028581e+05 1.028421e+05 1.028198e+05 1.028194e+05 1.028194e+05 1.028131e+05 1.028373e+05 1.028358e+05 1.034784e+05 1.035694e+05 1.036690e+05 1.037888e+05 1.036862e+05 1.037384e+05 1.036014e+05 1.037744e+05 1.037215e+05 1.028115e+05 1.027824e+05 1.038752e+05 1.038813e+05 1.038730e+05 1.038727e+05 1.038766e+05 1.038572e+05 1.038583e+05 1.038514e+05 1.038416e+05 1.038278e+05 1.038118e+05 1.038001e+05 1.037886e+05 1.037707e+05 1.037688e+05 1.037795e+05 1.037542e+05 1.037489e+05 1.037480e+05 1.037386e+05 1.037364e+05 1.037217e+05 1.037495e+05 1.036912e+05 1.036910e+05 1.036612e+05 1.036392e+05 1.036152e+05 1.035918e+05 1.035670e+05 1.035373e+05 1.035273e+05 1.034848e+05 1.034650e+05 1.034350e+05 1.033959e+05 1.033729e+05 1.033371e+05 1.032999e+05 1.032735e+05 1.032657e+05 1.032441e+05 1.031993e+05 1.031586e+05 1.031481e+05 1.031258e+05 1.031030e+05 1.030874e+05 1.030532e+05 1.030263e+05 1.029919e+05 1.029481e+05 1.029060e+05 1.028503e+05 1.028237e+05 1.027789e+05 1.027212e+05 1.026922e+05 1.026559e+05 1.026306e+05 1.026190e+05 1.025805e+05 1.025596e+05 1.025328e+05 1.025346e+05 1.024782e+05 1.024375e+05 1.024193e+05 1.023920e+05 1.023435e+05 1.022888e+05 1.022715e+05 1.022244e+05 1.021905e+05 1.021523e+05 1.021389e+05 1.020963e+05 1.020826e+05 1.020504e+05 1.020270e+05 1.020053e+05 1.019792e+05 1.019432e+05 1.019242e+05 1.019080e+05 1.018905e+05 1.018727e+05 1.018524e+05 1.018373e+05 1.018252e+05 1.017989e+05 1.017918e+05 1.017632e+05 1.017566e+05 1.017471e+05 1.017263e+05 1.017321e+05 1.017232e+05 1.017133e+05 1.017046e+05 1.017110e+05 1.017126e+05 1.016972e+05 1.017000e+05 1.016866e+05 1.017022e+05 1.016955e+05 1.016774e+05 1.016946e+05 1.016797e+05 1.016903e+05 1.016973e+05 1.016850e+05 1.016884e+05 1.016910e+05 1.016804e+05 1.017038e+05 1.017074e+05 1.017093e+05 1.017236e+05 1.017400e+05 1.017540e+05 1.017739e+05 1.017739e+05 1.026898e+05 1.026898e+05 1.027775e+05 1.027844e+05 1.027916e+05 1.028017e+05 1.028083e+05 1.028083e+05 1.028095e+05 1.028131e+05 1.028198e+05 1.028198e+05 1.028334e+05 1.028334e+05 1.028552e+05 1.028657e+05 1.028795e+05 1.028794e+05 1.029019e+05 1.029515e+05 1.029515e+05 1.030034e+05 1.030034e+05 1.030305e+05 1.030398e+05 1.031087e+05 1.031186e+05 1.031237e+05 1.031934e+05 1.032237e+05 1.032279e+05 1.032600e+05 1.033236e+05 1.033573e+05 1.033791e+05 1.034504e+05 1.034847e+05 1.034847e+05 1.034819e+05 1.035623e+05 1.035623e+05 1.036727e+05 1.036181e+05 1.036181e+05 1.036837e+05 1.037449e+05 1.037449e+05 1.037590e+05 1.037784e+05 1.037913e+05 1.037913e+05 1.038366e+05 1.038337e+05 1.038488e+05 1.038774e+05 1.038519e+05 1.026963e+05 1.029927e+05 1.029927e+05 1.029927e+05 1.030296e+05 1.028162e+05 1.028162e+05 1.028162e+05 1.028508e+05 1.028508e+05 1.030378e+05 1.030378e+05 1.030378e+05 1.030514e+05 1.030107e+05 1.027393e+05 1.028923e+05 1.028923e+05 1.028992e+05 1.029850e+05 1.029850e+05 1.029850e+05 1.029796e+05 1.029622e+05 1.026878e+05 1.026878e+05 1.026878e+05 1.026668e+05 1.027644e+05 1.027644e+05 1.027644e+05 1.027674e+05 1.027597e+05 1.027597e+05 1.029700e+05 1.029700e+05 1.029084e+05 1.028659e+05 1.026963e+05 1.026963e+05 1.027947e+05 1.027947e+05 1.027947e+05 1.027851e+05 1.027803e+05 1.027803e+05 1.027786e+05 1.028718e+05 1.028718e+05 1.028718e+05 1.028907e+05 1.028944e+05 1.029019e+05 1.029169e+05 1.028229e+05 1.028229e+05 1.028229e+05 1.028074e+05 1.027926e+05 1.027680e+05 1.026946e+05 1.027680e+05 1.032727e+05 1.032727e+05 1.032727e+05 1.033822e+05 1.033822e+05 1.033822e+05 1.033328e+05 1.022080e+05 1.021983e+05 1.022080e+05 1.022080e+05 1.026985e+05 1.026985e+05 1.026985e+05 1.026762e+05 1.031365e+05 1.031365e+05 1.031365e+05 1.031457e+05 1.034229e+05 1.034229e+05 1.034229e+05 1.033926e+05 1.033926e+05 1.019281e+05 1.019281e+05 1.019281e+05 1.019265e+05 1.019287e+05 1.019287e+05 1.019287e+05 1.019384e+05 1.019384e+05 1.037606e+05 1.037606e+05 1.037606e+05 1.037732e+05 1.020957e+05 1.020957e+05 1.020957e+05 1.021472e+05 1.021472e+05 1.019221e+05 1.019689e+05 1.032957e+05 1.032957e+05 1.032957e+05 1.033000e+05 1.034831e+05 1.034831e+05 1.034831e+05 1.035215e+05 1.035215e+05 1.021114e+05 1.021114e+05 1.021114e+05 1.021249e+05 1.033613e+05 1.033613e+05 1.033613e+05 1.033843e+05 1.016884e+05 1.025643e+05 1.025643e+05 1.025643e+05 1.021972e+05 1.021972e+05 1.021972e+05 1.021754e+05 1.019841e+05 1.019841e+05 1.019841e+05 1.019361e+05 1.017232e+05 1.017499e+05 1.017499e+05 1.017499e+05 1.017466e+05 1.019026e+05 1.019026e+05 1.019026e+05 1.019577e+05 1.019577e+05 1.019689e+05 1.019689e+05 1.019221e+05 1.035059e+05 1.035059e+05 1.035059e+05 1.035044e+05 1.035044e+05 1.021787e+05 1.022197e+05 1.022197e+05 1.032648e+05 1.032648e+05 1.032648e+05 1.032690e+05 1.032690e+05 1.033151e+05 1.033151e+05 1.033151e+05 1.033202e+05 1.023971e+05 1.023493e+05 1.023971e+05 1.023971e+05 1.025726e+05 1.028879e+05 1.028879e+05 1.028879e+05 1.028469e+05 1.028828e+05 1.029239e+05 1.029239e+05 1.027826e+05 1.027826e+05 1.027999e+05 1.027999e+05 1.030284e+05 1.030284e+05 1.030284e+05 1.030617e+05 1.030617e+05 1.027919e+05 1.027919e+05 1.027919e+05 1.028093e+05 1.028231e+05 1.028234e+05 1.028121e+05 1.031578e+05 1.031578e+05 1.031578e+05 1.031467e+05 1.032316e+05 1.032316e+05 1.032316e+05 1.032004e+05 1.028461e+05 1.028461e+05 1.028461e+05 1.034755e+05 1.034755e+05 1.034755e+05 1.024793e+05 1.024793e+05 1.024793e+05 1.035786e+05 1.035786e+05 1.035786e+05 1.021339e+05 1.021339e+05 1.021339e+05 1.022281e+05 1.021671e+05 1.023152e+05 1.023152e+05 1.023152e+05 1.021519e+05 1.021519e+05 1.022021e+05 1.025110e+05 1.025110e+05 1.025110e+05 1.025367e+05 1.022309e+05 1.022309e+05 1.022309e+05 1.022346e+05 1.022098e+05 1.022098e+05 1.037775e+05 1.037775e+05 1.037775e+05 1.037604e+05 1.020358e+05 1.020358e+05 1.020358e+05 1.020664e+05 1.020094e+05 1.020094e+05 1.020094e+05 1.020418e+05 1.035270e+05 1.035270e+05 1.035270e+05 1.025457e+05 1.025457e+05 1.025457e+05 1.025826e+05 1.020022e+05 1.020022e+05 1.020022e+05 1.020274e+05 1.018885e+05 1.018885e+05 1.018885e+05 1.019482e+05 1.021133e+05 1.021133e+05 1.021133e+05 1.021253e+05 1.