<?xml version="1.0"?>
 <VTKFile type="UnstructuredGrid" version="1.0" byte_order="LittleEndian" header_type="UInt64">
  <UnstructuredGrid>
    <FieldData>
     <DataArray type="Float64" Name="TimeValue" NumberOfTuples="1" format="ascii">
2e-05
     </DataArray>
    </FieldData>
   <Piece NumberOfPoints="3548" NumberOfCells="3379">
    <PointData>
     <DataArray type="Float64" Name="pointP" format="ascii">
1.017703e+05 1.017856e+05 1.018099e+05 1.018292e+05 1.018488e+05 1.018490e+05 1.018575e+05 1.018808e+05 1.018914e+05 1.019054e+05 1.019146e+05 1.019050e+05 1.019135e+05 1.019286e+05 1.019262e+05 1.019459e+05 1.019720e+05 1.019716e+05 1.019804e+05 1.020034e+05 1.020290e+05 1.020213e+05 1.020471e+05 1.020796e+05 1.020826e+05 1.020928e+05 1.021081e+05 1.021394e+05 1.021720e+05 1.022007e+05 1.022159e+05 1.022488e+05 1.022718e+05 1.022867e+05 1.023229e+05 1.023419e+05 1.023325e+05 1.023612e+05 1.023868e+05 1.024163e+05 1.024273e+05 1.024557e+05 1.024792e+05 1.024868e+05 1.025129e+05 1.025240e+05 1.025566e+05 1.025709e+05 1.025707e+05 1.025998e+05 1.026136e+05 1.026455e+05 1.026654e+05 1.026658e+05 1.026837e+05 1.026879e+05 1.027403e+05 1.027401e+05 1.027635e+05 1.027792e+05 1.027993e+05 1.028096e+05 1.028162e+05 1.028354e+05 1.028403e+05 1.028681e+05 1.028840e+05 1.028809e+05 1.028762e+05 1.028747e+05 1.028644e+05 1.028629e+05 1.028556e+05 1.028545e+05 1.028547e+05 1.028557e+05 1.028564e+05 1.028804e+05 1.028793e+05 1.028860e+05 1.028816e+05 1.028816e+05 1.029131e+05 1.029193e+05 1.029447e+05 1.029451e+05 1.029451e+05 1.029266e+05 1.029313e+05 1.029177e+05 1.029128e+05 1.029314e+05 1.029261e+05 1.029273e+05 1.029246e+05 1.029237e+05 1.029229e+05 1.029224e+05 1.029231e+05 1.029278e+05 1.029291e+05 1.029257e+05 1.029257e+05 1.029271e+05 1.029236e+05 1.029287e+05 1.029247e+05 1.029303e+05 1.029289e+05 1.029214e+05 1.029220e+05 1.029183e+05 1.029248e+05 1.029171e+05 1.029318e+05 1.029175e+05 1.029144e+05 1.029179e+05 1.029191e+05 1.029180e+05 1.029117e+05 1.029096e+05 1.029046e+05 1.029064e+05 1.029202e+05 1.029004e+05 1.029034e+05 1.028992e+05 1.028992e+05 1.028953e+05 1.028936e+05 1.028966e+05 1.028966e+05 1.028823e+05 1.028846e+05 1.028846e+05 1.028821e+05 1.028774e+05 1.028805e+05 1.028791e+05 1.028791e+05 1.028631e+05 1.028631e+05 1.028657e+05 1.028658e+05 1.028616e+05 1.028599e+05 1.028649e+05 1.028420e+05 1.028420e+05 1.028439e+05 1.028406e+05 1.028385e+05 1.028329e+05 1.028329e+05 1.028087e+05 1.028087e+05 1.028087e+05 1.028132e+05 1.027870e+05 1.027870e+05 1.027870e+05 1.027063e+05 1.027063e+05 1.027063e+05 1.027740e+05 1.027853e+05 1.027853e+05 1.027853e+05 1.027189e+05 1.027241e+05 1.027241e+05 1.027241e+05 1.027086e+05 1.028200e+05 1.028200e+05 1.028200e+05 1.028163e+05 1.027810e+05 1.028850e+05 1.028850e+05 1.028850e+05 1.028605e+05 1.022088e+05 1.022088e+05 1.022088e+05 1.023055e+05 1.023055e+05 1.023055e+05 1.023059e+05 1.022571e+05 1.028034e+05 1.028034e+05 1.028034e+05 1.027630e+05 1.019599e+05 1.019599e+05 1.019599e+05 1.019596e+05 1.019596e+05 1.021631e+05 1.021631e+05 1.021631e+05 1.022141e+05 1.022290e+05 1.025573e+05 1.025573e+05 1.025573e+05 1.026136e+05 1.025977e+05 1.021685e+05 1.021685e+05 1.021685e+05 1.022034e+05 1.027783e+05 1.027783e+05 1.027783e+05 1.018324e+05 1.018324e+05 1.021092e+05 1.021092e+05 1.023598e+05 1.023598e+05 1.023598e+05 1.023585e+05 1.026877e+05 1.026877e+05 1.026877e+05 1.026920e+05 1.028527e+05 1.028527e+05 1.028597e+05 1.028597e+05 1.025019e+05 1.025019e+05 1.025019e+05 1.024659e+05 1.024659e+05 1.028327e+05 1.028327e+05 1.028327e+05 1.028204e+05 1.028204e+05 1.018366e+05 1.025982e+05 1.025982e+05 1.025982e+05 1.025662e+05 1.020773e+05 1.020773e+05 1.020773e+05 1.021182e+05 1.021182e+05 1.021815e+05 1.021815e+05 1.021815e+05 1.021775e+05 1.021775e+05 1.024255e+05 1.024255e+05 1.024255e+05 1.023757e+05 1.023757e+05 1.025309e+05 1.025309e+05 1.025309e+05 1.025190e+05 1.025190e+05 1.028840e+05 1.028840e+05 1.028840e+05 1.028705e+05 1.022979e+05 1.022979e+05 1.022979e+05 1.023291e+05 1.026687e+05 1.026687e+05 1.026687e+05 1.027135e+05 1.027135e+05 1.023932e+05 1.023932e+05 1.023932e+05 1.025746e+05 1.025746e+05 1.025746e+05 1.025613e+05 1.025613e+05 1.025834e+05 1.025834e+05 1.025834e+05 1.025681e+05 1.025681e+05 1.027160e+05 1.027160e+05 1.027160e+05 1.026908e+05 1.025604e+05 1.025604e+05 1.028603e+05 1.028603e+05 1.028603e+05 1.021636e+05 1.021636e+05 1.021657e+05 1.021657e+05 1.020635e+05 1.020635e+05 1.020635e+05 1.021083e+05 1.028638e+05 1.028638e+05 1.028638e+05 1.028790e+05 1.020262e+05 1.020262e+05 1.028317e+05 1.028317e+05 1.028317e+05 1.020686e+05 1.020686e+05 1.020686e+05 1.021065e+05 1.021065e+05 1.028778e+05 1.028778e+05 1.028778e+05 1.029046e+05 1.029046e+05 1.028603e+05 1.028603e+05 1.028568e+05 1.028461e+05 1.028461e+05 1.028461e+05 1.019919e+05 1.019919e+05 1.021720e+05 1.026426e+05 1.026426e+05 1.026426e+05 1.028352e+05 1.021238e+05 1.021102e+05 1.025436e+05 1.025436e+05 1.025436e+05 1.027641e+05 1.027641e+05 1.027641e+05 1.028727e+05 1.028727e+05 1.028727e+05 1.026914e+05 1.026914e+05 1.026914e+05 1.026899e+05 1.026899e+05 1.027101e+05 1.027101e+05 1.027101e+05 1.026746e+05 1.026746e+05 1.026657e+05 1.026657e+05 1.027242e+05 1.027242e+05 1.027555e+05 1.027555e+05 1.027237e+05 1.023907e+05 1.023907e+05 1.024439e+05 1.024439e+05 1.027487e+05 1.027487e+05 1.027979e+05 1.027782e+05 1.027979e+05 1.027979e+05 1.027191e+05 1.026587e+05 1.026587e+05 1.026192e+05 1.026192e+05 1.026192e+05 1.026235e+05 1.026235e+05 1.026235e+05 1.021194e+05 1.020694e+05 1.020694e+05 1.020688e+05 1.020688e+05 1.021229e+05 1.019695e+05 1.021250e+05 1.028096e+05 1.028562e+05 1.028562e+05 1.024387e+05 1.024387e+05 1.024321e+05 1.022159e+05 1.023002e+05 1.023002e+05 1.028891e+05 1.028891e+05 1.028891e+05 1.029009e+05 1.028965e+05 1.018488e+05 1.018897e+05 1.018897e+05 1.023229e+05 1.023324e+05 1.023324e+05 1.018366e+05 1.020437e+05 1.020437e+05 1.023053e+05 1.019259e+05 1.019259e+05 1.019259e+05 1.027088e+05 1.023819e+05 1.023819e+05 1.023855e+05 1.019864e+05 1.019864e+05 1.019864e+05 1.019407e+05 1.019407e+05 1.019675e+05 1.019246e+05 1.019246e+05 1.022958e+05 1.018808e+05 1.019049e+05 1.029007e+05 1.029007e+05 1.029154e+05 1.028102e+05 1.028245e+05 1.028245e+05 1.027905e+05 1.027403e+05 1.027247e+05 1.027247e+05 1.026571e+05 1.018490e+05 1.019343e+05 1.028618e+05 1.021419e+05 1.028881e+05 1.019557e+05 1.019557e+05 1.026263e+05 1.026226e+05 1.028839e+05 1.025032e+05 1.025032e+05 1.025032e+05 1.024815e+05 1.024815e+05 1.019083e+05 1.019083e+05 1.022272e+05 1.019330e+05 1.019891e+05 1.028779e+05 1.027425e+05 1.027425e+05 1.018894e+05 1.021370e+05 1.023666e+05 1.025630e+05 1.019320e+05 1.023600e+05 1.022812e+05 1.023881e+05 1.024179e+05 1.024179e+05 1.021696e+05 1.028574e+05 1.025162e+05 1.025216e+05 1.028868e+05 1.019947e+05 1.019947e+05 1.019603e+05 1.023914e+05 1.023924e+05 1.023924e+05 1.027779e+05 1.020013e+05 1.020013e+05 1.020013e+05 1.020110e+05 1.028766e+05 1.028979e+05 1.020788e+05 1.020788e+05 1.020788e+05 1.020384e+05 1.026889e+05 1.025779e+05 1.027087e+05 1.027087e+05 1.022175e+05 1.022498e+05 1.022970e+05 1.023230e+05 1.026440e+05 1.019744e+05 1.026779e+05 1.026374e+05 1.026374e+05 1.026445e+05 1.026445e+05 1.027468e+05 1.027468e+05 1.022212e+05 1.022212e+05 1.027374e+05 1.025124e+05 1.020163e+05 1.020163e+05 1.021110e+05 1.021110e+05 1.019761e+05 1.025944e+05 1.020164e+05 1.020045e+05 1.024476e+05 1.024597e+05 1.028731e+05 1.028731e+05 1.028711e+05 1.028656e+05 1.018627e+05 1.028839e+05 1.028839e+05 1.024637e+05 1.024467e+05 1.028948e+05 1.028791e+05 1.028758e+05 1.024184e+05 1.027590e+05 1.020396e+05 1.020396e+05 1.023286e+05 1.020034e+05 1.027626e+05 1.025596e+05 1.020170e+05 1.029232e+05 1.029232e+05 1.029232e+05 1.029271e+05 1.029271e+05 1.023027e+05 1.023380e+05 1.021874e+05 1.021641e+05 1.025813e+05 1.028779e+05 1.020455e+05 1.025310e+05 1.028963e+05 1.022757e+05 1.026687e+05 1.028842e+05 1.028842e+05 1.028842e+05 1.023609e+05 1.024088e+05 1.021250e+05 1.021678e+05 1.029031e+05 1.029031e+05 1.026037e+05 1.027121e+05 1.027121e+05 1.027268e+05 1.027268e+05 1.022275e+05 1.028145e+05 1.027725e+05 1.027725e+05 1.022562e+05 1.022562e+05 1.021079e+05 1.022845e+05 1.022845e+05 1.022666e+05 1.028267e+05 1.028267e+05 1.028736e+05 1.028736e+05 1.028736e+05 1.028859e+05 1.022323e+05 1.020763e+05 1.025356e+05 1.025356e+05 1.024949e+05 1.020534e+05 1.022607e+05 1.022723e+05 1.026477e+05 1.028769e+05 1.020819e+05 1.021184e+05 1.024613e+05 1.024613e+05 1.021866e+05 1.021866e+05 1.024847e+05 1.027855e+05 1.027144e+05 1.027144e+05 1.023242e+05 1.023098e+05 1.020534e+05 1.023182e+05 1.024998e+05 1.024998e+05 1.022199e+05 1.027490e+05 1.027490e+05 1.028517e+05 1.028343e+05 1.028343e+05 1.021667e+05 1.021667e+05 1.022070e+05 1.024026e+05 1.024026e+05 1.024026e+05 1.023599e+05 1.029003e+05 1.022224e+05 1.021128e+05 1.024280e+05 1.024280e+05 1.025753e+05 1.025753e+05 1.026210e+05 1.021108e+05 1.028739e+05 1.028751e+05 1.028751e+05 1.024416e+05 1.029051e+05 1.029051e+05 1.028228e+05 1.027760e+05 1.023798e+05 1.026752e+05 1.026752e+05 1.026752e+05 1.022582e+05 1.022760e+05 1.025615e+05 1.025850e+05 1.025850e+05 1.026562e+05 1.026562e+05 1.026562e+05 1.026408e+05 1.028789e+05 1.024646e+05 1.024646e+05 1.024232e+05 1.028152e+05 1.027265e+05 1.027265e+05 1.027265e+05 1.025827e+05 1.025961e+05 1.025580e+05 1.022586e+05 1.022683e+05 1.023280e+05 1.023328e+05 1.024973e+05 1.023731e+05 1.023789e+05 1.023789e+05 1.028377e+05 1.028377e+05 1.027688e+05 1.028040e+05 1.024798e+05 1.024798e+05 1.024798e+05 1.027556e+05 1.023213e+05 1.025846e+05 1.023404e+05 1.024214e+05 1.025269e+05 1.022849e+05 1.027769e+05 1.027974e+05 1.028078e+05 1.027938e+05 1.027938e+05 1.024663e+05 1.024663e+05 1.024663e+05 1.024667e+05 1.025842e+05 1.026451e+05 1.025375e+05 1.024117e+05 1.025973e+05 1.025416e+05 1.024788e+05 1.025154e+05 1.027267e+05 1.027267e+05 1.027267e+05 1.027697e+05 1.027332e+05 1.026089e+05 1.026089e+05 1.027618e+05 1.027618e+05 1.025508e+05 1.025672e+05 1.026439e+05 1.025998e+05 1.027542e+05 1.026153e+05 1.026949e+05 1.026949e+05 1.025884e+05 1.026569e+05 1.026569e+05 1.026927e+05 1.026927e+05 1.027800e+05 1.027800e+05 1.027592e+05 1.027348e+05 1.027348e+05 1.026444e+05 1.027571e+05 1.028174e+05 1.027636e+05 1.028009e+05 1.028009e+05 1.028009e+05 1.029196e+05 1.029196e+05 1.029196e+05 1.029168e+05 1.029168e+05 1.027853e+05 1.027853e+05 1.027853e+05 1.027896e+05 1.029159e+05 1.029159e+05 1.029125e+05 1.029125e+05 1.028799e+05 1.028799e+05 1.028799e+05 1.027925e+05 1.027925e+05 1.027925e+05 1.028196e+05 1.028271e+05 1.028271e+05 1.028271e+05 1.028582e+05 1.029123e+05 1.029123e+05 1.029204e+05 1.029204e+05 1.029204e+05 1.029260e+05 1.029260e+05 1.029260e+05 1.029357e+05 1.029357e+05 1.029357e+05 1.029231e+05 1.029231e+05 1.029231e+05 1.029167e+05 1.028766e+05 1.028766e+05 1.028766e+05 1.028813e+05 1.028813e+05 1.028813e+05 1.028516e+05 1.028516e+05 1.028516e+05 1.028094e+05 1.028094e+05 1.028094e+05 1.028081e+05 1.028081e+05 1.028078e+05 1.028078e+05 1.027836e+05 1.028007e+05 1.027852e+05 1.027852e+05 1.027852e+05 1.028203e+05 1.028203e+05 1.028562e+05 1.028562e+05 1.028562e+05 1.028519e+05 1.028519e+05 1.028519e+05 1.029108e+05 1.029108e+05 1.029108e+05 1.028883e+05 1.029197e+05 1.029197e+05 1.029197e+05 1.029211e+05 1.028966e+05 1.028966e+05 1.028966e+05 1.029325e+05 1.029325e+05 1.029325e+05 1.029155e+05 1.029283e+05 1.029216e+05 1.029216e+05 1.029216e+05 1.029278e+05 1.029278e+05 1.029280e+05 1.029280e+05 1.029312e+05 1.029247e+05 1.029247e+05 1.029131e+05 1.029131e+05 1.029131e+05 1.028964e+05 1.028964e+05 1.028812e+05 1.028812e+05 1.028812e+05 1.028753e+05 1.028505e+05 1.028505e+05 1.028505e+05 1.028005e+05 1.027956e+05 1.028310e+05 1.028310e+05 1.027909e+05 1.027909e+05 1.028427e+05 1.028427e+05 1.028427e+05 1.028388e+05 1.028474e+05 1.029353e+05 1.029353e+05 1.029262e+05 1.029107e+05 1.029291e+05 1.029291e+05 1.029291e+05 1.029266e+05 1.029342e+05 1.029342e+05 1.029171e+05 1.029192e+05 1.029192e+05 1.029258e+05 1.028972e+05 1.028972e+05 1.029211e+05 1.029211e+05 1.029211e+05 1.029177e+05 1.029177e+05 1.029177e+05 1.029273e+05 1.029218e+05 1.028937e+05 1.029089e+05 1.029089e+05 1.029089e+05 1.029105e+05 1.029335e+05 1.029335e+05 1.029193e+05 1.029193e+05 1.029215e+05 1.029237e+05 1.029237e+05 1.029263e+05 1.029263e+05 1.029119e+05 1.029119e+05 1.029119e+05 1.028819e+05 1.028819e+05 1.028560e+05 1.028560e+05 1.029264e+05 1.029112e+05 1.029112e+05 1.029112e+05 1.029180e+05 1.029180e+05 1.029001e+05 1.029001e+05 1.029250e+05 1.029250e+05 1.028653e+05 1.028653e+05 1.029214e+05 1.029140e+05 1.029140e+05 1.029150e+05 1.029150e+05 1.029044e+05 1.029044e+05 1.029044e+05 1.029055e+05 1.029055e+05 1.029055e+05 1.029156e+05 1.029144e+05 1.029085e+05 1.029052e+05 1.029052e+05 1.029186e+05 1.028893e+05 1.029086e+05 1.029086e+05 1.029034e+05 1.029034e+05 1.029034e+05 1.029161e+05 1.029031e+05 1.029031e+05 1.028926e+05 1.028926e+05 1.028728e+05 1.029110e+05 1.028973e+05 1.028973e+05 1.028637e+05 1.028637e+05 1.028637e+05 1.028845e+05 1.028845e+05 1.028577e+05 1.029085e+05 1.028913e+05 1.028913e+05 1.028266e+05 1.028937e+05 1.028937e+05 1.029205e+05 1.029149e+05 1.029149e+05 1.029054e+05 1.028758e+05 1.028758e+05 1.029177e+05 1.029177e+05 1.028914e+05 1.028928e+05 1.028928e+05 1.028804e+05 1.028804e+05 1.029002e+05 1.028945e+05 1.028846e+05 1.028846e+05 1.029031e+05 1.029228e+05 1.028584e+05 1.028584e+05 1.028884e+05 1.028697e+05 1.028458e+05 1.028458e+05 1.028458e+05 1.028637e+05 1.028637e+05 1.028637e+05 1.028503e+05 1.028503e+05 1.028388e+05 1.028388e+05 1.028388e+05 1.028694e+05 1.028449e+05 1.028500e+05 1.028509e+05 1.028580e+05 1.028580e+05 1.028580e+05 1.028616e+05 1.028619e+05 1.028619e+05 1.028640e+05 1.028640e+05 1.028640e+05 1.028265e+05 1.028599e+05 1.028324e+05 1.028324e+05 1.028425e+05 1.028425e+05 1.028425e+05 1.028873e+05 1.028402e+05 1.028296e+05 1.028296e+05 1.028296e+05 1.028312e+05 1.028312e+05 1.028402e+05 1.028217e+05 1.028325e+05 1.028693e+05 1.028705e+05 1.028705e+05 1.028343e+05 1.028190e+05 1.028190e+05 1.028226e+05 1.028226e+05 1.028226e+05 1.028494e+05 1.028146e+05 1.028287e+05 1.028072e+05 1.028290e+05 1.028203e+05 1.028035e+05 1.027988e+05 1.027988e+05 1.028051e+05 1.028320e+05 1.028320e+05 1.028131e+05 1.028099e+05 1.028099e+05 1.028099e+05 1.028005e+05 1.028005e+05 1.027772e+05 1.027772e+05 1.027991e+05 1.028226e+05 1.028226e+05 1.028049e+05 1.027612e+05 1.027793e+05 1.027922e+05 1.027884e+05 1.027786e+05 1.027872e+05 1.027884e+05 1.027891e+05 1.029118e+05 1.029118e+05 1.029256e+05 1.029256e+05 1.029406e+05 1.029406e+05 1.029365e+05 1.029312e+05 1.029137e+05 1.029240e+05 1.028950e+05 1.027696e+05 1.027696e+05 1.027865e+05 1.028740e+05 1.028459e+05 1.027851e+05 1.027851e+05 1.028943e+05 1.029080e+05 1.028950e+05 1.029099e+05 1.029099e+05 1.029099e+05 1.029338e+05 1.029338e+05 1.029338e+05 1.029007e+05 1.029332e+05 1.029332e+05 1.029023e+05 1.029023e+05 1.029232e+05 1.029222e+05 1.028954e+05 1.028762e+05 1.028211e+05 1.028306e+05 1.028465e+05 1.028312e+05 1.028312e+05 1.029104e+05 1.029147e+05 1.029182e+05 1.029291e+05 1.029312e+05 1.029312e+05 1.029368e+05 1.029230e+05 1.029212e+05 1.029095e+05 1.029095e+05 1.028907e+05 1.028059e+05 1.028436e+05 1.028235e+05 1.028235e+05 1.028235e+05 1.028722e+05 1.028806e+05 1.028887e+05 1.028887e+05 1.028881e+05 1.028968e+05 1.028968e+05 1.029130e+05 1.028499e+05 1.029333e+05 1.029333e+05 1.028363e+05 1.028363e+05 1.028363e+05 1.028402e+05 1.028402e+05 1.028325e+05 1.029302e+05 1.029248e+05 1.029094e+05 1.028930e+05 1.028577e+05 1.029235e+05 1.029242e+05 1.029258e+05 1.028907e+05 1.029196e+05 1.028765e+05 1.028983e+05 1.028842e+05 1.028842e+05 1.028639e+05 1.028945e+05 1.028838e+05 1.028645e+05 1.028904e+05 1.028343e+05 1.028478e+05 1.028478e+05 1.028523e+05 1.028702e+05 1.028502e+05 1.028842e+05 1.028842e+05 1.028935e+05 1.028868e+05 1.028777e+05 1.028650e+05 1.028554e+05 1.028708e+05 1.028466e+05 1.028859e+05 1.028429e+05 1.028429e+05 1.028429e+05 1.028460e+05 1.028530e+05 1.028530e+05 1.028673e+05 1.028673e+05 1.028602e+05 1.028475e+05 1.028475e+05 1.028346e+05 1.028691e+05 1.028519e+05 1.028568e+05 1.028320e+05 1.028389e+05 1.028266e+05 1.028266e+05 1.028314e+05 1.028947e+05 1.028332e+05 1.028332e+05 1.028330e+05 1.028330e+05 1.028312e+05 1.028349e+05 1.028304e+05 1.028255e+05 1.028255e+05 1.028380e+05 1.028380e+05 1.028452e+05 1.028470e+05 1.028606e+05 1.028585e+05 1.028639e+05 1.028538e+05 1.028916e+05 1.028916e+05 1.028916e+05 1.029019e+05 1.029055e+05 1.029055e+05 1.029055e+05 1.029157e+05 1.028728e+05 1.028728e+05 1.028520e+05 1.028520e+05 1.028636e+05 1.028789e+05 1.028789e+05 1.028789e+05 1.028797e+05 1.028815e+05 1.028815e+05 1.028815e+05 1.028716e+05 1.028910e+05 1.028841e+05 1.028487e+05 1.028487e+05 1.028648e+05 1.028521e+05 1.028521e+05 1.028521e+05 1.028548e+05 1.028548e+05 1.028548e+05 1.028548e+05 1.028548e+05 1.028446e+05 1.028720e+05 1.028885e+05 1.028442e+05 1.028442e+05 1.028535e+05 1.028793e+05 1.028844e+05 1.028844e+05 1.028844e+05 1.028736e+05 1.028736e+05 1.028446e+05 1.028601e+05 1.028721e+05 1.028530e+05 1.028889e+05 1.028889e+05 1.028736e+05 1.028777e+05 1.028843e+05 1.028948e+05 1.029143e+05 1.028945e+05 1.028945e+05 1.029006e+05 1.028911e+05 1.028551e+05 1.028551e+05 1.028551e+05 1.028470e+05 1.028470e+05 1.028438e+05 1.028133e+05 1.028133e+05 1.027982e+05 1.028659e+05 1.028659e+05 1.028659e+05 1.028838e+05 1.028838e+05 1.029137e+05 1.029137e+05 1.029137e+05 1.029128e+05 1.029128e+05 1.028584e+05 1.028388e+05 1.028388e+05 1.028388e+05 1.028837e+05 1.028837e+05 1.028837e+05 1.028879e+05 1.028806e+05 1.028826e+05 1.028826e+05 1.028826e+05 1.029048e+05 1.029048e+05 1.029048e+05 1.029316e+05 1.029316e+05 1.029316e+05 1.029269e+05 1.029269e+05 1.029231e+05 1.029231e+05 1.029231e+05 1.029127e+05 1.029127e+05 1.029269e+05 1.029269e+05 1.029269e+05 1.029271e+05 1.029271e+05 1.029224e+05 1.029224e+05 1.029224e+05 1.028847e+05 1.028847e+05 1.028847e+05 1.028777e+05 1.028777e+05 1.028777e+05 1.028795e+05 1.028795e+05 1.028587e+05 1.028587e+05 1.028587e+05 1.028551e+05 1.028551e+05 1.027763e+05 1.027995e+05 1.027995e+05 1.027995e+05 1.028058e+05 1.028236e+05 1.028236e+05 1.028236e+05 1.028128e+05 1.028416e+05 1.028416e+05 1.028416e+05 1.028643e+05 1.028696e+05 1.028752e+05 1.028752e+05 1.028752e+05 1.028926e+05 1.028531e+05 1.028531e+05 1.028531e+05 1.029018e+05 1.029018e+05 1.029018e+05 1.029174e+05 1.029174e+05 1.029201e+05 1.029201e+05 1.029201e+05 1.029204e+05 1.029214e+05 1.029214e+05 1.029228e+05 1.029228e+05 1.029237e+05 1.029301e+05 1.029293e+05 1.029248e+05 1.028784e+05 1.029303e+05 1.028911e+05 1.029037e+05 1.029037e+05 1.028613e+05 1.028613e+05 1.028613e+05 1.028768e+05 1.028768e+05 1.028212e+05 1.028212e+05 1.028212e+05 1.029253e+05 1.029253e+05 1.029253e+05 1.029064e+05 1.029064e+05 1.029287e+05 1.029287e+05 1.029199e+05 1.029199e+05 1.029199e+05 1.029233e+05 1.029233e+05 1.029233e+05 1.029282e+05 1.029282e+05 1.029282e+05 1.029274e+05 1.028823e+05 1.028823e+05 1.029214e+05 1.029214e+05 1.029171e+05 1.029171e+05 1.029210e+05 1.029210e+05 1.029283e+05 1.029216e+05 1.029216e+05 1.029216e+05 1.029260e+05 1.029049e+05 1.029073e+05 1.029170e+05 1.029024e+05 1.029024e+05 1.029024e+05 1.029245e+05 1.029245e+05 1.029159e+05 1.029159e+05 1.029228e+05 1.029228e+05 1.029324e+05 1.029324e+05 1.029187e+05 1.029187e+05 1.029247e+05 1.029285e+05 1.029285e+05 1.029160e+05 1.029160e+05 1.029160e+05 1.029249e+05 1.029249e+05 1.029301e+05 1.029233e+05 1.029233e+05 1.029233e+05 1.029164e+05 1.029164e+05 1.029164e+05 1.029164e+05 1.029046e+05 1.029046e+05 1.029046e+05 1.028983e+05 1.028983e+05 1.028983e+05 1.029201e+05 1.029201e+05 1.029196e+05 1.029214e+05 1.029202e+05 1.029202e+05 1.029109e+05 1.029109e+05 1.029224e+05 1.029094e+05 1.029153e+05 1.029175e+05 1.029163e+05 1.029163e+05 1.029152e+05 1.029126e+05 1.029057e+05 1.029057e+05 1.029024e+05 1.029197e+05 1.029168e+05 1.029168e+05 1.029038e+05 1.029163e+05 1.029163e+05 1.029124e+05 1.029063e+05 1.029063e+05 1.029063e+05 1.029082e+05 1.029105e+05 1.029030e+05 1.029030e+05 1.029030e+05 1.028983e+05 1.028983e+05 1.029152e+05 1.029165e+05 1.029146e+05 1.029146e+05 1.029056e+05 1.028936e+05 1.029071e+05 1.029071e+05 1.029071e+05 1.029018e+05 1.029092e+05 1.028818e+05 1.028818e+05 1.028818e+05 1.028798e+05 1.028971e+05 1.028971e+05 1.028922e+05 1.028922e+05 1.029051e+05 1.029115e+05 1.028846e+05 1.028910e+05 1.028971e+05 1.028971e+05 1.028971e+05 1.029147e+05 1.029147e+05 1.028777e+05 1.028777e+05 1.028777e+05 1.028984e+05 1.028987e+05 1.028957e+05 1.028957e+05 1.028928e+05 1.028928e+05 1.028938e+05 1.029006e+05 1.028928e+05 1.028928e+05 1.028928e+05 1.028712e+05 1.028712e+05 1.028680e+05 1.028680e+05 1.028680e+05 1.028966e+05 1.028966e+05 1.028847e+05 1.028857e+05 1.028857e+05 1.028458e+05 1.028458e+05 1.028544e+05 1.028544e+05 1.028933e+05 1.028861e+05 1.028861e+05 1.028564e+05 1.028564e+05 1.028771e+05 1.028912e+05 1.028842e+05 1.028842e+05 1.028953e+05 1.028724e+05 1.028724e+05 1.028738e+05 1.028738e+05 1.028738e+05 1.028782e+05 1.028514e+05 1.028514e+05 1.028514e+05 1.028773e+05 1.028570e+05 1.028400e+05 1.028400e+05 1.028400e+05 1.028722e+05 1.028790e+05 1.028639e+05 1.028658e+05 1.028673e+05 1.028876e+05 1.028251e+05 1.028816e+05 1.028816e+05 1.028552e+05 1.028222e+05 1.028222e+05 1.028222e+05 1.028658e+05 1.028588e+05 1.028699e+05 1.028647e+05 1.028537e+05 1.028702e+05 1.028680e+05 1.028495e+05 1.028495e+05 1.028465e+05 1.028389e+05 1.028138e+05 1.028189e+05 1.028561e+05 1.028561e+05 1.028476e+05 1.028507e+05 1.028138e+05 1.028336e+05 1.028336e+05 1.028336e+05 1.028320e+05 1.027994e+05 1.028320e+05 1.028034e+05 1.028243e+05 1.028243e+05 1.028243e+05 1.028204e+05 1.028204e+05 1.028034e+05 1.028117e+05 1.028117e+05 1.028076e+05 1.028246e+05 1.028246e+05 1.028190e+05 1.028257e+05 1.027915e+05 1.027915e+05 1.027915e+05 1.028093e+05 1.028164e+05 1.028164e+05 1.028111e+05 1.027982e+05 1.027982e+05 1.027919e+05 1.028041e+05 1.027847e+05 1.027850e+05 1.027850e+05 1.027998e+05 1.027868e+05 1.027894e+05 1.027894e+05 1.027821e+05 1.027919e+05 1.027919e+05 1.027862e+05 1.029183e+05 1.029246e+05 1.029451e+05 1.029131e+05 1.029131e+05 1.029247e+05 1.029292e+05 1.029292e+05 1.029304e+05 1.029254e+05 1.029266e+05 1.029266e+05 1.029447e+05 1.029213e+05 1.029004e+05 1.029063e+05 1.029345e+05 1.028029e+05 1.028416e+05 1.028259e+05 1.028976e+05 1.029139e+05 1.028946e+05 1.029140e+05 1.028859e+05 1.028561e+05 1.028573e+05 1.028247e+05 1.029229e+05 1.028417e+05 1.029288e+05 1.028432e+05 1.028353e+05 1.028353e+05 1.028353e+05 1.028744e+05 1.029144e+05 1.029144e+05 1.029149e+05 1.029299e+05 1.029291e+05 1.029245e+05 1.029046e+05 1.029289e+05 1.029179e+05 1.028992e+05 1.028936e+05 1.028936e+05 1.028846e+05 1.028791e+05 1.029191e+05 1.028968e+05 1.028968e+05 1.029166e+05 1.029004e+05 1.028631e+05 1.028956e+05 1.028708e+05 1.028657e+05 1.028934e+05 1.028753e+05 1.028805e+05 1.028805e+05 1.028966e+05 1.028821e+05 1.028826e+05 1.028420e+05 1.028439e+05 1.028439e+05 1.028658e+05 1.028974e+05 1.028599e+05 1.028599e+05 1.028775e+05 1.028394e+05 1.028394e+05 1.028470e+05 1.028470e+05 1.028669e+05 1.028616e+05 1.028752e+05 1.028767e+05 1.028328e+05 1.028328e+05 1.028328e+05 1.028956e+05 1.028649e+05 1.028649e+05 1.028351e+05 1.028681e+05 1.028944e+05 1.028798e+05 1.028528e+05 1.028799e+05 1.028601e+05 1.028601e+05 1.028617e+05 1.028392e+05 1.028392e+05 1.028693e+05 1.028693e+05 1.028716e+05 1.028901e+05 1.028563e+05 1.028452e+05 1.028446e+05 1.028276e+05 1.028314e+05 1.028460e+05 1.028585e+05 1.028474e+05 1.028343e+05 1.017703e+05 1.017856e+05 1.018099e+05 1.018292e+05 1.018488e+05 1.018490e+05 1.018575e+05 1.018808e+05 1.018914e+05 1.019054e+05 1.019146e+05 1.019050e+05 1.019135e+05 1.019286e+05 1.019262e+05 1.019459e+05 1.019720e+05 1.019716e+05 1.019804e+05 1.020034e+05 1.020290e+05 1.020213e+05 1.020471e+05 1.020796e+05 1.020826e+05 1.020928e+05 1.021081e+05 1.021394e+05 1.021720e+05 1.022007e+05 1.022159e+05 1.022488e+05 1.022718e+05 1.022867e+05 1.023229e+05 1.023419e+05 1.023325e+05 1.023612e+05 1.023868e+05 1.024163e+05 1.024273e+05 1.024557e+05 1.024792e+05 1.024868e+05 1.025129e+05 1.025240e+05 1.025566e+05 1.025709e+05 1.025707e+05 1.025998e+05 1.026136e+05 1.026455e+05 1.026654e+05 1.026658e+05 1.026837e+05 1.026879e+05 1.027403e+05 1.027401e+05 1.027635e+05 1.027792e+05 1.027993e+05 1.028096e+05 1.028162e+05 1.028354e+05 1.028403e+05 1.028681e+05 1.028840e+05 1.028809e+05 1.028762e+05 1.028747e+05 1.028644e+05 1.028629e+05 1.028556e+05 1.028545e+05 1.028547e+05 1.028557e+05 1.028564e+05 1.028804e+05 1.028793e+05 1.028860e+05 1.028816e+05 1.028816e+05 1.029131e+05 1.029193e+05 1.029447e+05 1.029451e+05 1.029451e+05 1.029266e+05 1.029313e+05 1.029177e+05 1.029128e+05 1.029314e+05 1.029261e+05 1.029273e+05 1.029246e+05 1.029237e+05 1.029229e+05 1.029224e+05 1.029231e+05 1.029278e+05 1.029291e+05 1.029257e+05 1.029257e+05 1.029271e+05 1.029236e+05 1.029287e+05 1.029247e+05 1.029303e+05 1.029289e+05 1.029214e+05 1.029220e+05 1.029183e+05 1.029248e+05 1.029171e+05 1.029318e+05 1.029175e+05 1.029144e+05 1.029179e+05 1.029191e+05 1.029180e+05 1.029117e+05 1.029096e+05 1.029046e+05 1.029064e+05 1.029202e+05 1.029004e+05 1.029034e+05 1.028992e+05 1.028992e+05 1.028953e+05 1.028936e+05 1.028966e+05 1.028966e+05 1.028823e+05 1.028846e+05 1.028846e+05 1.028821e+05 1.028774e+05 1.028805e+05 1.028791e+05 1.028791e+05 1.028631e+05 1.028631e+05 1.028657e+05 1.028658e+05 1.028616e+05 1.028599e+05 1.028649e+05 1.028420e+05 1.028420e+05 1.028439e+05 1.028406e+05 1.028385e+05 1.028329e+05 1.028329e+05 1.028087e+05 1.028087e+05 1.028087e+05 1.028132e+05 1.027870e+05 1.027870e+05 1.027870e+05 1.027063e+05 1.027063e+05 1.027063e+05 1.027740e+05 1.027853e+05 1.027853e+05 1.027853e+05 1.027189e+05 1.027241e+05 1.027241e+05 1.027241e+05 1.027086e+05 1.028200e+05 1.028200e+05 1.028200e+05 1.028163e+05 1.027810e+05 1.028850e+05 1.028850e+05 1.028850e+05 1.028605e+05 1.022088e+05 1.022088e+05 1.022088e+05 1.023055e+05 1.023055e+05 1.023055e+05 1.023059e+05 1.022571e+05 1.028034e+05 1.028034e+05 1.028034e+05 1.027630e+05 1.019599e+05 1.019599e+05 1.019599e+05 1.019596e+05 1.019596e+05 1.021631e+05 1.021631e+05 1.021631e+05 1.022141e+05 1.022290e+05 1.025573e+05 1.025573e+05 1.025573e+05 1.026136e+05 1.025977e+05 1.021685e+05 1.021685e+05 1.021685e+05 1.022034e+05 1.027783e+05 1.027783e+05 1.027783e+05 1.018324e+05 1.018324e+05 1.021092e+05 1.021092e+05 1.023598e+05 1.023598e+05 1.023598e+05 1.023585e+05 1.026877e+05 1.026877e+05 1.026877e+05 1.026920e+05 1.028527e+05 1.028527e+05 1.028597e+05 1.028597e+05 1.025019e+05 1.025019e+05 1.025019e+05 1.024659e+05 1.024659e+05 1.028327e+05 1.028327e+05 1.028327e+05 1.028204e+05 1.028204e+05 1.018366e+05 1.025982e+05 1.025982e+05 1.025982e+05 1.025662e+05 1.020773e+05 1.020773e+05 1.020773e+05 1.021182e+05 1.021182e+05 1.021815e+05 1.021815e+05 1.021815e+05 1.021775e+05 1.021775e+05 1.024255e+05 1.024255e+05 1.024255e+05 1.023757e+05 1.023757e+05 1.025309e+05 1.025309e+05 1.025309e+05 1.025190e+05 1.025190e+05 1.028840e+05 1.028840e+05 1.028840e+05 1.028705e+05 1.022979e+05 1.022979e+05 1.022979e+05 1.023291e+05 1.026687e+05 1.026687e+05 1.026687e+05 1.027135e+05 1.027135e+05 1.023932e+05 1.023932e+05 1.023932e+05 1.025746e+05 1.025746e+05 1.025746e+05 1.025613e+05 1.025613e+05 1.025834e+05 1.025834e+05 1.025834e+05 1.025681e+05 1.025681e+05 1.027160e+05 1.027160e+05 1.027160e+05 1.026908e+05 1.025604e+05 1.025604e+05 1.028603e+05 1.028603e+05 1.028603e+05 1.021636e+05 1.021636e+05 1.021657e+05 1.021657e+05 1.020635e+05 1.020635e+05 1.020635e+05 1.021083e+05 1.028638e+05 1.028638e+05 1.028638e+05 1.028790e+05 1.020262e+05 1.020262e+05 1.028317e+05 1.028317e+05 1.028317e+05 1.020686e+05 1.020686e+05 1.020686e+05 1.021065e+05 1.021065e+05 1.028778e+05 1.028778e+05 1.028778e+05 1.029046e+05 1.029046e+05 1.028603e+05 1.028603e+05 1.028568e+05 1.028461e+05 1.028461e+05 1.028461e+05 1.019919e+05 1.019919e+05 1.021720e+05 1.026426e+05 1.026426e+05 1.026426e+05 1.028352e+05 1.021238e+05 1.021102e+05 1.025436e+05 1.025436e+05 1.025436e+05 1.027641e+05 1.027641e+05 1.027641e+05 1.028727e+05 1.028727e+05 1.028727e+05 1.026914e+05 1.026914e+05 1.026914e+05 1.026899e+05 1.026899e+05 1.027101e+05 1.027101e+05 1.027101e+05 1.026746e+05 1.026746e+05 1.026657e+05 1.026657e+05 1.027242e+05 1.027242e+05 1.027555e+05 1.027555e+05 1.027237e+05 1.023907e+05 1.023907e+05 1.024439e+05 1.024439e+05 1.027487e+05 1.027487e+05 1.027979e+05 1.027782e+05 1.027979e+05 1.027979e+05 1.027191e+05 1.026587e+05 1.026587e+05 1.026192e+05 1.026192e+05 1.026192e+05 1.026235e+05 1.026235e+05 1.026235e+05 1.021194e+05 1.020694e+05 1.020694e+05 1.020688e+05 1.020688e+05 1.021229e+05 1.019695e+05 1.021250e+05 1.028096e+05 1.028562e+05 1.028562e+05 1.024387e+05 1.024387e+05 1.024321e+05 1.022159e+05 1.023002e+05 1.023002e+05 1.028891e+05 1.028891e+05 1.028891e+05 1.029009e+05 1.028965e+05 1.018488e+05 1.018897e+05 1.018897e+05 1.023229e+05 1.023324e+05 1.023324e+05 1.018366e+05 1.020437e+05 1.020437e+05 1.023053e+05 1.019259e+05 1.019259e+05 1.019259e+05 1.027088e+05 1.023819e+05 1.023819e+05 1.023855e+05 1.019864e+05 1.019864e+05 1.019864e+05 1.019407e+05 1.019407e+05 1.019675e+05 1.019246e+05 1.019246e+05 1.022958e+05 1.018808e+05 1.019049e+05 1.029007e+05 1.029007e+05 1.029154e+05 1.028102e+05 1.028245e+05 1.028245e+05 1.027905e+05 1.027403e+05 1.027247e+05 1.027247e+05 1.026571e+05 1.018490e+05 1.019343e+05 1.028618e+05 1.021419e+05 1.028881e+05 1.019557e+05 1.019557e+05 1.026263e+05 1.026226e+05 1.028839e+05 1.025032e+05 1.025032e+05 1.025032e+05 1.024815e+05 1.024815e+05 1.019083e+05 1.019083e+05 1.022272e+05 1.019330e+05 1.019891e+05 1.028779e+05 1.027425e+05 1.027425e+05 1.018894e+05 1.021370e+05 1.023666e+05 1.025630e+05 1.019320e+05 1.023600e+05 1.022812e+05 1.023881e+05 1.024179e+05 1.024179e+05 1.021696e+05 1.028574e+05 1.025162e+05 1.025216e+05 1.028868e+05 1.019947e+05 1.019947e+05 1.019603e+05 1.023914e+05 1.023924e+05 1.023924e+05 1.027779e+05 1.020013e+05 1.020013e+05 1.020013e+05 1.020110e+05 1.028766e+05 1.028979e+05 1.