<?xml version="1.0"?>
 <VTKFile type="UnstructuredGrid" version="1.0" byte_order="LittleEndian" header_type="UInt64">
  <UnstructuredGrid>
    <FieldData>
     <DataArray type="Float64" Name="TimeValue" NumberOfTuples="1" format="ascii">
2e-05
     </DataArray>
    </FieldData>
   <Piece NumberOfPoints="3632" NumberOfCells="3379">
    <PointData>
     <DataArray type="Float64" Name="pointP" format="ascii">
1.038473e+05 1.038473e+05 1.038441e+05 1.038291e+05 1.038490e+05 1.038082e+05 1.037935e+05 1.037771e+05 1.037855e+05 1.037344e+05 1.037388e+05 1.037404e+05 1.037075e+05 1.036883e+05 1.036768e+05 1.036569e+05 1.036135e+05 1.035797e+05 1.035727e+05 1.035668e+05 1.035028e+05 1.034852e+05 1.034541e+05 1.034208e+05 1.033986e+05 1.033723e+05 1.033641e+05 1.033223e+05 1.032917e+05 1.032681e+05 1.032431e+05 1.032263e+05 1.031966e+05 1.031542e+05 1.031381e+05 1.030828e+05 1.030443e+05 1.030157e+05 1.029870e+05 1.029608e+05 1.029367e+05 1.029119e+05 1.028833e+05 1.028485e+05 1.028154e+05 1.027944e+05 1.027731e+05 1.027372e+05 1.027187e+05 1.026862e+05 1.026477e+05 1.026233e+05 1.025986e+05 1.025614e+05 1.025497e+05 1.024981e+05 1.024471e+05 1.024236e+05 1.023932e+05 1.023671e+05 1.023430e+05 1.023017e+05 1.022638e+05 1.022457e+05 1.022275e+05 1.021943e+05 1.021605e+05 1.021419e+05 1.021190e+05 1.020825e+05 1.020456e+05 1.020276e+05 1.020172e+05 1.019904e+05 1.019627e+05 1.019467e+05 1.019287e+05 1.019173e+05 1.019069e+05 1.018738e+05 1.018652e+05 1.018448e+05 1.018270e+05 1.018156e+05 1.017844e+05 1.017748e+05 1.017726e+05 1.017675e+05 1.017430e+05 1.017387e+05 1.017354e+05 1.017241e+05 1.017384e+05 1.017183e+05 1.017243e+05 1.017308e+05 1.017349e+05 1.017298e+05 1.017268e+05 1.017284e+05 1.017209e+05 1.017232e+05 1.017305e+05 1.017209e+05 1.017010e+05 1.017090e+05 1.017048e+05 1.016929e+05 1.017236e+05 1.017076e+05 1.017313e+05 1.017444e+05 1.017569e+05 1.017774e+05 1.017756e+05 1.017850e+05 1.017964e+05 1.017936e+05 1.018223e+05 1.018406e+05 1.018399e+05 1.018489e+05 1.018729e+05 1.018754e+05 1.019014e+05 1.019173e+05 1.019106e+05 1.019272e+05 1.019585e+05 1.019553e+05 1.019759e+05 1.020078e+05 1.019937e+05 1.020447e+05 1.020500e+05 1.020934e+05 1.020929e+05 1.021100e+05 1.021403e+05 1.021332e+05 1.021681e+05 1.022005e+05 1.022026e+05 1.022164e+05 1.022424e+05 1.022332e+05 1.022732e+05 1.022750e+05 1.023100e+05 1.023068e+05 1.023332e+05 1.023598e+05 1.023525e+05 1.023491e+05 1.023723e+05 1.024003e+05 1.024349e+05 1.024628e+05 1.024505e+05 1.024718e+05 1.025109e+05 1.025493e+05 1.025504e+05 1.025496e+05 1.025690e+05 1.026034e+05 1.026285e+05 1.026028e+05 1.026394e+05 1.026384e+05 1.026781e+05 1.026829e+05 1.027010e+05 1.027265e+05 1.027301e+05 1.027456e+05 1.027654e+05 1.027785e+05 1.027932e+05 1.028177e+05 1.028128e+05 1.027638e+05 1.027638e+05 1.027638e+05 1.027381e+05 1.027381e+05 1.027381e+05 1.027923e+05 1.027446e+05 1.027735e+05 1.027596e+05 1.028814e+05 1.028814e+05 1.028814e+05 1.028349e+05 1.028111e+05 1.028111e+05 1.028111e+05 1.027754e+05 1.028153e+05 1.034486e+05 1.034486e+05 1.034486e+05 1.034708e+05 1.033761e+05 1.033761e+05 1.033761e+05 1.033242e+05 1.020997e+05 1.020997e+05 1.020997e+05 1.020954e+05 1.021192e+05 1.021504e+05 1.025146e+05 1.025146e+05 1.025146e+05 1.024781e+05 1.024781e+05 1.030082e+05 1.030082e+05 1.030082e+05 1.030084e+05 1.025603e+05 1.025603e+05 1.025603e+05 1.025195e+05 1.025195e+05 1.037911e+05 1.037911e+05 1.037911e+05 1.020208e+05 1.020208e+05 1.020208e+05 1.020504e+05 1.019627e+05 1.019627e+05 1.019627e+05 1.026809e+05 1.026809e+05 1.026809e+05 1.026556e+05 1.019893e+05 1.019893e+05 1.020389e+05 1.020389e+05 1.020399e+05 1.020399e+05 1.020625e+05 1.027577e+05 1.027577e+05 1.027577e+05 1.027820e+05 1.027820e+05 1.026103e+05 1.026103e+05 1.026103e+05 1.026060e+05 1.026060e+05 1.028408e+05 1.028408e+05 1.028408e+05 1.028057e+05 1.028057e+05 1.034394e+05 1.034394e+05 1.021879e+05 1.021879e+05 1.021879e+05 1.022288e+05 1.018411e+05 1.018411e+05 1.018411e+05 1.018292e+05 1.018735e+05 1.021653e+05 1.021653e+05 1.021653e+05 1.020416e+05 1.020416e+05 1.020428e+05 1.030828e+05 1.030987e+05 1.030987e+05 1.027265e+05 1.027293e+05 1.027293e+05 1.017931e+05 1.019014e+05 1.019239e+05 1.028367e+05 1.028504e+05 1.028504e+05 1.028504e+05 1.028390e+05 1.028283e+05 1.028421e+05 1.028421e+05 1.028421e+05 1.028581e+05 1.028581e+05 1.026962e+05 1.026962e+05 1.026962e+05 1.027026e+05 1.026360e+05 1.026360e+05 1.026360e+05 1.026575e+05 1.034416e+05 1.034674e+05 1.034278e+05 1.035194e+05 1.035194e+05 1.023744e+05 1.023744e+05 1.023744e+05 1.024303e+05 1.026944e+05 1.026944e+05 1.026944e+05 1.027827e+05 1.027827e+05 1.027638e+05 1.024678e+05 1.024678e+05 1.024678e+05 1.025061e+05 1.022668e+05 1.022668e+05 1.022668e+05 1.022638e+05 1.023079e+05 1.025133e+05 1.025133e+05 1.025133e+05 1.025658e+05 1.028768e+05 1.028848e+05 1.021013e+05 1.021013e+05 1.021013e+05 1.021099e+05 1.024025e+05 1.024025e+05 1.024025e+05 1.023708e+05 1.028439e+05 1.028439e+05 1.028439e+05 1.028578e+05 1.028578e+05 1.023589e+05 1.023589e+05 1.023589e+05 1.023699e+05 1.025862e+05 1.025862e+05 1.025862e+05 1.025919e+05 1.028056e+05 1.028056e+05 1.028056e+05 1.027930e+05 1.019618e+05 1.019618e+05 1.019118e+05 1.018601e+05 1.018601e+05 1.019521e+05 1.019521e+05 1.019521e+05 1.018122e+05 1.018122e+05 1.018122e+05 1.017625e+05 1.027454e+05 1.027454e+05 1.027454e+05 1.027574e+05 1.027574e+05 1.034269e+05 1.034269e+05 1.034269e+05 1.033851e+05 1.033851e+05 1.018670e+05 1.024234e+05 1.024234e+05 1.024452e+05 1.028216e+05 1.028216e+05 1.028216e+05 1.028181e+05 1.024026e+05 1.024026e+05 1.024350e+05 1.024350e+05 1.029581e+05 1.029581e+05 1.029925e+05 1.027106e+05 1.027106e+05 1.025033e+05 1.025033e+05 1.025312e+05 1.025312e+05 1.026056e+05 1.026056e+05 1.026056e+05 1.026101e+05 1.018749e+05 1.019198e+05 1.021429e+05 1.021429e+05 1.021429e+05 1.020979e+05 1.022943e+05 1.022943e+05 1.022943e+05 1.022761e+05 1.022761e+05 1.027319e+05 1.027319e+05 1.027319e+05 1.027519e+05 1.027519e+05 1.021757e+05 1.022154e+05 1.037167e+05 1.037167e+05 1.037167e+05 1.037288e+05 1.025787e+05 1.025787e+05 1.025787e+05 1.025508e+05 1.025508e+05 1.026042e+05 1.025898e+05 1.021241e+05 1.021241e+05 1.021241e+05 1.021916e+05 1.021916e+05 1.020882e+05 1.020235e+05 1.020235e+05 1.022657e+05 1.022657e+05 1.022657e+05 1.023204e+05 1.023204e+05 1.022396e+05 1.022396e+05 1.022396e+05 1.023041e+05 1.023041e+05 1.025559e+05 1.025559e+05 1.025798e+05 1.025798e+05 1.022346e+05 1.022346e+05 1.022328e+05 1.025756e+05 1.025756e+05 1.026161e+05 1.026161e+05 1.023634e+05 1.023634e+05 1.023634e+05 1.023750e+05 1.024551e+05 1.024551e+05 1.024551e+05 1.024880e+05 1.024880e+05 1.033786e+05 1.034360e+05 1.032490e+05 1.028177e+05 1.028177e+05 1.028177e+05 1.028155e+05 1.028155e+05 1.028096e+05 1.028096e+05 1.028251e+05 1.028438e+05 1.028438e+05 1.028201e+05 1.028266e+05 1.028301e+05 1.028301e+05 1.028301e+05 1.028170e+05 1.028170e+05 1.028170e+05 1.029253e+05 1.029253e+05 1.029253e+05 1.027480e+05 1.027288e+05 1.027990e+05 1.029062e+05 1.029062e+05 1.029062e+05 1.028617e+05 1.030169e+05 1.030169e+05 1.030169e+05 1.027253e+05 1.027253e+05 1.027253e+05 1.027200e+05 1.025270e+05 1.025270e+05 1.025270e+05 1.021936e+05 1.021936e+05 1.021936e+05 1.024325e+05 1.024325e+05 1.024325e+05 1.029088e+05 1.029088e+05 1.029440e+05 1.023411e+05 1.022476e+05 1.022476e+05 1.032648e+05 1.032648e+05 1.032648e+05 1.032803e+05 1.032803e+05 1.022951e+05 1.022951e+05 1.028513e+05 1.028640e+05 1.028848e+05 1.035774e+05 1.035774e+05 1.035774e+05 1.035789e+05 1.021224e+05 1.021224e+05 1.021224e+05 1.019742e+05 1.020100e+05 1.020011e+05 1.020267e+05 1.020267e+05 1.020267e+05 1.021583e+05 1.021583e+05 1.021583e+05 1.021988e+05 1.021738e+05 1.020154e+05 1.020154e+05 1.020154e+05 1.036781e+05 1.036781e+05 1.036781e+05 1.036990e+05 1.024084e+05 1.024084e+05 1.024084e+05 1.024152e+05 1.036611e+05 1.036611e+05 1.036611e+05 1.020892e+05 1.020188e+05 1.020188e+05 1.017761e+05 1.017761e+05 1.017761e+05 1.017765e+05 1.018200e+05 1.028030e+05 1.028030e+05 1.028023e+05 1.028428e+05 1.027946e+05 1.027334e+05 1.027334e+05 1.019810e+05 1.019810e+05 1.019810e+05 1.020025e+05 1.026139e+05 1.026139e+05 1.026139e+05 1.026592e+05 1.022457e+05 1.022682e+05 1.022682e+05 1.017660e+05 1.017660e+05 1.017660e+05 1.017588e+05 1.024360e+05 1.017363e+05 1.017363e+05 1.017525e+05 1.028607e+05 1.028607e+05 1.028607e+05 1.034466e+05 1.034466e+05 1.032736e+05 1.032736e+05 1.032736e+05 1.032925e+05 1.035746e+05 1.035746e+05 1.035746e+05 1.035811e+05 1.035811e+05 1.035588e+05 1.031310e+05 1.031310e+05 1.017366e+05 1.020480e+05 1.020480e+05 1.020775e+05 1.017376e+05 1.038367e+05 1.038399e+05 1.038367e+05 1.038367e+05 1.024032e+05 1.024032e+05 1.024032e+05 1.024291e+05 1.024291e+05 1.030624e+05 1.030624e+05 1.030098e+05 1.030098e+05 1.027992e+05 1.027992e+05 1.027992e+05 1.028290e+05 1.028290e+05 1.021064e+05 1.021064e+05 1.021064e+05 1.021686e+05 1.021686e+05 1.036814e+05 1.036814e+05 1.036814e+05 1.036545e+05 1.036545e+05 1.024992e+05 1.024992e+05 1.024992e+05 1.022920e+05 1.028265e+05 1.028265e+05 1.028265e+05 1.028146e+05 1.028146e+05 1.026055e+05 1.026055e+05 1.026055e+05 1.025863e+05 1.025863e+05 1.024041e+05 1.024041e+05 1.024041e+05 1.024205e+05 1.024205e+05 1.035740e+05 1.035740e+05 1.035740e+05 1.026096e+05 1.026096e+05 1.026096e+05 1.025624e+05 1.025624e+05 1.025127e+05 1.025381e+05 1.027550e+05 1.027550e+05 1.027550e+05 1.027718e+05 1.028252e+05 1.028252e+05 1.028059e+05 1.028285e+05 1.028285e+05 1.028090e+05 1.028090e+05 1.028360e+05 1.028569e+05 1.029311e+05 1.029233e+05 1.029311e+05 1.029311e+05 1.027735e+05 1.027735e+05 1.027711e+05 1.030027e+05 1.030347e+05 1.036730e+05 1.036730e+05 1.036730e+05 1.036443e+05 1.036666e+05 1.021852e+05 1.021852e+05 1.021852e+05 1.022001e+05 1.025143e+05 1.022775e+05 1.028432e+05 1.028432e+05 1.028432e+05 1.028533e+05 1.025533e+05 1.025234e+05 1.025271e+05 1.018740e+05 1.018740e+05 1.018921e+05 1.025817e+05 1.024916e+05 1.024916e+05 1.025087e+05 1.024874e+05 1.020344e+05 1.020330e+05 1.020845e+05 1.017610e+05 1.017610e+05 1.017610e+05 1.017573e+05 1.023429e+05 1.023429e+05 1.023429e+05 1.023354e+05 1.017552e+05 1.022732e+05 1.023054e+05 1.023054e+05 1.021200e+05 1.021200e+05 1.021200e+05 1.017270e+05 1.032226e+05 1.032226e+05 1.017650e+05 1.017650e+05 1.017650e+05 1.022702e+05 1.025612e+05 1.025612e+05 1.017675e+05 1.017958e+05 1.017958e+05 1.017958e+05 1.017998e+05 1.019585e+05 1.027062e+05 1.027062e+05 1.026689e+05 1.024349e+05 1.017627e+05 1.017627e+05 1.022322e+05 1.022322e+05 1.022322e+05 1.022348e+05 1.029817e+05 1.030437e+05 1.030437e+05 1.021679e+05 1.023847e+05 1.023847e+05 1.024002e+05 1.031752e+05 1.031752e+05 1.030351e+05 1.025728e+05 1.018406e+05 1.018839e+05 1.018839e+05 1.037187e+05 1.037187e+05 1.019065e+05 1.033361e+05 1.033361e+05 1.018351e+05 1.018351e+05 1.018351e+05 1.018247e+05 1.020950e+05 1.020950e+05 1.019587e+05 1.019587e+05 1.026446e+05 1.027026e+05 1.020064e+05 1.019598e+05 1.022424e+05 1.022729e+05 1.022729e+05 1.017675e+05 1.017996e+05 1.017996e+05 1.026979e+05 1.026979e+05 1.026799e+05 1.026799e+05 1.028338e+05 1.018127e+05 1.037375e+05 1.037375e+05 1.037689e+05 1.037828e+05 1.037828e+05 1.029367e+05 1.029280e+05 1.023414e+05 1.023414e+05 1.023414e+05 1.034964e+05 1.034964e+05 1.034964e+05 1.034784e+05 1.018797e+05 1.018797e+05 1.023737e+05 1.026544e+05 1.026544e+05 1.017854e+05 1.020190e+05 1.017625e+05 1.017625e+05 1.017625e+05 1.023868e+05 1.023868e+05 1.028833e+05 1.028743e+05 1.028743e+05 1.019069e+05 1.019211e+05 1.018448e+05 1.018547e+05 1.027791e+05 1.036649e+05 1.036649e+05 1.021388e+05 1.021388e+05 1.021388e+05 1.021553e+05 1.035394e+05 1.019731e+05 1.018265e+05 1.018265e+05 1.018094e+05 1.019090e+05 1.019090e+05 1.025709e+05 1.025709e+05 1.025871e+05 1.021943e+05 1.022366e+05 1.022366e+05 1.017769e+05 1.036892e+05 1.036892e+05 1.036802e+05 1.036802e+05 1.017820e+05 1.017820e+05 1.017820e+05 1.021955e+05 1.021955e+05 1.021955e+05 1.017806e+05 1.017806e+05 1.031279e+05 1.036632e+05 1.036303e+05 1.036009e+05 1.029742e+05 1.036761e+05 1.024706e+05 1.019335e+05 1.019807e+05 1.021700e+05 1.021700e+05 1.026283e+05 1.024253e+05 1.020871e+05 1.021176e+05 1.017844e+05 1.017844e+05 1.038473e+05 1.038437e+05 1.038109e+05 1.038109e+05 1.038109e+05 1.037865e+05 1.032200e+05 1.031809e+05 1.032262e+05 1.032617e+05 1.019335e+05 1.019335e+05 1.019176e+05 1.030182e+05 1.023973e+05 1.022811e+05 1.025784e+05 1.025188e+05 1.025188e+05 1.025188e+05 1.017909e+05 1.018813e+05 1.018813e+05 1.018813e+05 1.038348e+05 1.032402e+05 1.036798e+05 1.036663e+05 1.019443e+05 1.022433e+05 1.037715e+05 1.037867e+05 1.026637e+05 1.026759e+05 1.026759e+05 1.020992e+05 1.023494e+05 1.024479e+05 1.025656e+05 1.031627e+05 1.031572e+05 1.031572e+05 1.023358e+05 1.023358e+05 1.023701e+05 1.023701e+05 1.019001e+05 1.026764e+05 1.018083e+05 1.028658e+05 1.033565e+05 1.033034e+05 1.017920e+05 1.018136e+05 1.018726e+05 1.018726e+05 1.032705e+05 1.032705e+05 1.032847e+05 1.032847e+05 1.018095e+05 1.018299e+05 1.020254e+05 1.020254e+05 1.019735e+05 1.018399e+05 1.018399e+05 1.018776e+05 1.018776e+05 1.019542e+05 1.019542e+05 1.028414e+05 1.036961e+05 1.036961e+05 1.030681e+05 1.030681e+05 1.030681e+05 1.027946e+05 1.023967e+05 1.023967e+05 1.021764e+05 1.021764e+05 1.025904e+05 1.025548e+05 1.028848e+05 1.034830e+05 1.028042e+05 1.026908e+05 1.026908e+05 1.018291e+05 1.018291e+05 1.018329e+05 1.026478e+05 1.026478e+05 1.020275e+05 1.020275e+05 1.033818e+05 1.033818e+05 1.019765e+05 1.037701e+05 1.023944e+05 1.023944e+05 1.023795e+05 1.018582e+05 1.018949e+05 1.024946e+05 1.023569e+05 1.019046e+05 1.036428e+05 1.027945e+05 1.019089e+05 1.019089e+05 1.019089e+05 1.018374e+05 1.018374e+05 1.018374e+05 1.019068e+05 1.018272e+05 1.018272e+05 1.018272e+05 1.017886e+05 1.037779e+05 1.037712e+05 1.026231e+05 1.026684e+05 1.026684e+05 1.019109e+05 1.019109e+05 1.019109e+05 1.028109e+05 1.023631e+05 1.035905e+05 1.038441e+05 1.038441e+05 1.038193e+05 1.018755e+05 1.020836e+05 1.020836e+05 1.021218e+05 1.019610e+05 1.019610e+05 1.037530e+05 1.026926e+05 1.019386e+05 1.019329e+05 1.021448e+05 1.019605e+05 1.020076e+05 1.034460e+05 1.018661e+05 1.018661e+05 1.018661e+05 1.020931e+05 1.020931e+05 1.028871e+05 1.029182e+05 1.029182e+05 1.033842e+05 1.033385e+05 1.023254e+05 1.022885e+05 1.034539e+05 1.034539e+05 1.034539e+05 1.034501e+05 1.022922e+05 1.022922e+05 1.022464e+05 1.027372e+05 1.027372e+05 1.021215e+05 1.021215e+05 1.021215e+05 1.020374e+05 1.019988e+05 1.035476e+05 1.035476e+05 1.035476e+05 1.035135e+05 1.035629e+05 1.021751e+05 1.021751e+05 1.022217e+05 1.022217e+05 1.023416e+05 1.029804e+05 1.029804e+05 1.018567e+05 1.018693e+05 1.028514e+05 1.028514e+05 1.022053e+05 1.022278e+05 1.032625e+05 1.038399e+05 1.038290e+05 1.019933e+05 1.020168e+05 1.037330e+05 1.018935e+05 1.018935e+05 1.019528e+05 1.019528e+05 1.020602e+05 1.018330e+05 1.018313e+05 1.026200e+05 1.019412e+05 1.022713e+05 1.022882e+05 1.030638e+05 1.030638e+05 1.038039e+05 1.038039e+05 1.038039e+05 1.038161e+05 1.027006e+05 1.027006e+05 1.027253e+05 1.020233e+05 1.020663e+05 1.024914e+05 1.028415e+05 1.027850e+05 1.027850e+05 1.027850e+05 1.028067e+05 1.018758e+05 1.038441e+05 1.033781e+05 1.033402e+05 1.033402e+05 1.024753e+05 1.024753e+05 1.024753e+05 1.024907e+05 1.037832e+05 1.037832e+05 1.032436e+05 1.032436e+05 1.032054e+05 1.027100e+05 1.023828e+05 1.036227e+05 1.019577e+05 1.019898e+05 1.037986e+05 1.038107e+05 1.019866e+05 1.024731e+05 1.024731e+05 1.024731e+05 1.025129e+05 1.024515e+05 1.018222e+05 1.018704e+05 1.026605e+05 1.026570e+05 1.019067e+05 1.019415e+05 1.021163e+05 1.021163e+05 1.025726e+05 1.020765e+05 1.020765e+05 1.020902e+05 1.021154e+05 1.021154e+05 1.018913e+05 1.024111e+05 1.024111e+05 1.024042e+05 1.032450e+05 1.036034e+05 1.036034e+05 1.019651e+05 1.020284e+05 1.020284e+05 1.021617e+05 1.025232e+05 1.027830e+05 1.028215e+05 1.031877e+05 1.031877e+05 1.018863e+05 1.020112e+05 1.021379e+05 1.021826e+05 1.021004e+05 1.032580e+05 1.032580e+05 1.026185e+05 1.026185e+05 1.026185e+05 1.020816e+05 1.021274e+05 1.028789e+05 1.029130e+05 1.029130e+05 1.019300e+05 1.019737e+05 1.019737e+05 1.022701e+05 1.020026e+05 1.020548e+05 1.033989e+05 1.036280e+05 1.036280e+05 1.036280e+05 1.035951e+05 1.026004e+05 1.022700e+05 1.019421e+05 1.019465e+05 1.021684e+05 1.021684e+05 1.021684e+05 1.019613e+05 1.019613e+05 1.019613e+05 1.019083e+05 1.019178e+05 1.024862e+05 1.023758e+05 1.024154e+05 1.019251e+05 1.019251e+05 1.024081e+05 1.024275e+05 1.024593e+05 1.024593e+05 1.019611e+05 1.021499e+05 1.021499e+05 1.021808e+05 1.027205e+05 1.027205e+05 1.026686e+05 1.020432e+05 1.020432e+05 1.020445e+05 1.023259e+05 1.023259e+05 1.023421e+05 1.023421e+05 1.027473e+05 1.027473e+05 1.027473e+05 1.033843e+05 1.034143e+05 1.034143e+05 1.028370e+05 1.028370e+05 1.028370e+05 1.028329e+05 1.026879e+05 1.019167e+05 1.034774e+05 1.034774e+05 1.034559e+05 1.033163e+05 1.033163e+05 1.033163e+05 1.024618e+05 1.024618e+05 1.024068e+05 1.022729e+05 1.022729e+05 1.023242e+05 1.026248e+05 1.026300e+05 1.026300e+05 1.038089e+05 1.037998e+05 1.021013e+05 1.021013e+05 1.021013e+05 1.037427e+05 1.024755e+05 1.024755e+05 1.024222e+05 1.024222e+05 1.027058e+05 1.027058e+05 1.027226e+05 1.027226e+05 1.027886e+05 1.027886e+05 1.027906e+05 1.021933e+05 1.022074e+05 1.020195e+05 1.031488e+05 1.031488e+05 1.031488e+05 1.020104e+05 1.025694e+05 1.024772e+05 1.023596e+05 1.037344e+05 1.021260e+05 1.027318e+05 1.027318e+05 1.038004e+05 1.037947e+05 1.037947e+05 1.022442e+05 1.022667e+05 1.036943e+05 1.036943e+05 1.036613e+05 1.024842e+05 1.024842e+05 1.019770e+05 1.020438e+05 1.031012e+05 1.021007e+05 1.037568e+05 1.037232e+05 1.037232e+05 1.020637e+05 1.019974e+05 1.019872e+05 1.035700e+05 1.035510e+05 1.026807e+05 1.026807e+05 1.021977e+05 1.021977e+05 1.019890e+05 1.027702e+05 1.027898e+05 1.027898e+05 1.033618e+05 1.021480e+05 1.021585e+05 1.020853e+05 1.020853e+05 1.020853e+05 1.020942e+05 1.020942e+05 1.025265e+05 1.032280e+05 1.035069e+05 1.029378e+05 1.029378e+05 1.021878e+05 1.021878e+05 1.022215e+05 1.021952e+05 1.021952e+05 1.037326e+05 1.037326e+05 1.037326e+05 1.037236e+05 1.037236e+05 1.023652e+05 1.023652e+05 1.024203e+05 1.026102e+05 1.025910e+05 1.025910e+05 1.025910e+05 1.023388e+05 1.026732e+05 1.027194e+05 1.027194e+05 1.022122e+05 1.022377e+05 1.028640e+05 1.027335e+05 1.034759e+05 1.023411e+05 1.022981e+05 1.037998e+05 1.030331e+05 1.030331e+05 1.030119e+05 1.030119e+05 1.030811e+05 1.030999e+05 1.035541e+05 1.026190e+05 1.023908e+05 1.023908e+05 1.024280e+05 1.028485e+05 1.031820e+05 1.028614e+05 1.019928e+05 1.023275e+05 1.036142e+05 1.033778e+05 1.033778e+05 1.034243e+05 1.034243e+05 1.021485e+05 1.021072e+05 1.021072e+05 1.021072e+05 1.021473e+05 1.031809e+05 1.020688e+05 1.025746e+05 1.026339e+05 1.022030e+05 1.027653e+05 1.024796e+05 1.025152e+05 1.026874e+05 1.026874e+05 1.026874e+05 1.027404e+05 1.021767e+05 1.027800e+05 1.030791e+05 1.030791e+05 1.030359e+05 1.022609e+05 1.021453e+05 1.021453e+05 1.033714e+05 1.024730e+05 1.025201e+05 1.027656e+05 1.023228e+05 1.023228e+05 1.023340e+05 1.028784e+05 1.027045e+05 1.027045e+05 1.027087e+05 1.021912e+05 1.021912e+05 1.021912e+05 1.022703e+05 1.021646e+05 1.022982e+05 1.022324e+05 1.022992e+05 1.022992e+05 1.022908e+05 1.023881e+05 1.028809e+05 1.028809e+05 1.031579e+05 1.022844e+05 1.022844e+05 1.022844e+05 1.023348e+05 1.037092e+05 1.023657e+05 1.035289e+05 1.035012e+05 1.021757e+05 1.027394e+05 1.027799e+05 1.035146e+05 1.023384e+05 1.023787e+05 1.028768e+05 1.024498e+05 1.031764e+05 1.031764e+05 1.031764e+05 1.037863e+05 1.037672e+05 1.031489e+05 1.034907e+05 1.037863e+05 1.026431e+05 1.027918e+05 1.024929e+05 1.026227e+05 1.026222e+05 1.023289e+05 1.026851e+05 1.026851e+05 1.026851e+05 1.023585e+05 1.034310e+05 1.034310e+05 1.037114e+05 1.037114e+05 1.024524e+05 1.027210e+05 1.034302e+05 1.022977e+05 1.022977e+05 1.022977e+05 1.021807e+05 1.033409e+05 1.033409e+05 1.022772e+05 1.023350e+05 1.026934e+05 1.025918e+05 1.032567e+05 1.032567e+05 1.032567e+05 1.027789e+05 1.027789e+05 1.027789e+05 1.037540e+05 1.023829e+05 1.036203e+05 1.036203e+05 1.028800e+05 1.028800e+05 1.028800e+05 1.028712e+05 1.022944e+05 1.022944e+05 1.022944e+05 1.030519e+05 1.030519e+05 1.030519e+05 1.031950e+05 1.022242e+05 1.022668e+05 1.023798e+05 1.023798e+05 1.023798e+05 1.022493e+05 1.023097e+05 1.023097e+05 1.029072e+05 1.028298e+05 1.036727e+05 1.023432e+05 1.023737e+05 1.028293e+05 1.025350e+05 1.025847e+05 1.024133e+05 1.027264e+05 1.027264e+05 1.027715e+05 1.033814e+05 1.024661e+05 1.023998e+05 1.024523e+05 1.023679e+05 1.025901e+05 1.024108e+05 1.024108e+05 1.028822e+05 1.029801e+05 1.030325e+05 1.025005e+05 1.024876e+05 1.035663e+05 1.026389e+05 1.026389e+05 1.028278e+05 1.028278e+05 1.031869e+05 1.031869e+05 1.031869e+05 1.031061e+05 1.031061e+05 1.026418e+05 1.032568e+05 1.032620e+05 1.032620e+05 1.025864e+05 1.025150e+05 1.025599e+05 1.027703e+05 1.027703e+05 1.028159e+05 1.031179e+05 1.027497e+05 1.027497e+05 1.029750e+05 1.029320e+05 1.028293e+05 1.028293e+05 1.025330e+05 1.025100e+05 1.025100e+05 1.025100e+05 1.024329e+05 1.025342e+05 1.026105e+05 1.024346e+05 1.024346e+05 1.024346e+05 1.024382e+05 1.024843e+05 1.026347e+05 1.024407e+05 1.025747e+05 1.028615e+05 1.028615e+05 1.028615e+05 1.027914e+05 1.024917e+05 1.032018e+05 1.032018e+05 1.032018e+05 1.028878e+05 1.026267e+05 1.030227e+05 1.030227e+05 1.024838e+05 1.028085e+05 1.028085e+05 1.028085e+05 1.027187e+05 1.027187e+05 1.034002e+05 1.033354e+05 1.033354e+05 1.026806e+05 1.025920e+05 1.025920e+05 1.028198e+05 1.027426e+05 1.027426e+05 1.027426e+05 1.026823e+05 1.026823e+05 1.026823e+05 1.025339e+05 1.025339e+05 1.025858e+05 1.023341e+05 1.027865e+05 1.027865e+05 1.026086e+05 1.026673e+05 1.026673e+05 1.026567e+05 1.026567e+05 1.029625e+05 1.025297e+05 1.025640e+05 1.025640e+05 1.026174e+05 1.026174e+05 1.025212e+05 1.025212e+05 1.026194e+05 1.027371e+05 1.027371e+05 1.027060e+05 1.027060e+05 1.025629e+05 1.027595e+05 1.031944e+05 1.031985e+05 1.031985e+05 1.027779e+05 1.026617e+05 1.025471e+05 1.031810e+05 1.031810e+05 1.028180e+05 1.032490e+05 1.032490e+05 1.027832e+05 1.027832e+05 1.028780e+05 1.030664e+05 1.030664e+05 1.030664e+05 1.030424e+05 1.030424e+05 1.030660e+05 1.027562e+05 1.027562e+05 1.030021e+05 1.030021e+05 1.029176e+05 1.026259e+05 1.025963e+05 1.027339e+05 1.027007e+05 1.031357e+05 1.031357e+05 1.026560e+05 1.026560e+05 1.026725e+05 1.026725e+05 1.027423e+05 1.027448e+05 1.027448e+05 1.026772e+05 1.026060e+05 1.026060e+05 1.029061e+05 1.029061e+05 1.028600e+05 1.027963e+05 1.027963e+05 1.026510e+05 1.026510e+05 1.027166e+05 1.027166e+05 1.026917e+05 1.026901e+05 1.026901e+05 1.026577e+05 1.026789e+05 1.027227e+05 1.027920e+05 1.028180e+05 1.030721e+05 1.030778e+05 1.029551e+05 1.029551e+05 1.030892e+05 1.027531e+05 1.027531e+05 1.027158e+05 1.027773e+05 1.031138e+05 1.031547e+05 1.031547e+05 1.027805e+05 1.027805e+05 1.029550e+05 1.030935e+05 1.027866e+05 1.027866e+05 1.029561e+05 1.029561e+05 1.027212e+05 1.027356e+05 1.027356e+05 1.027356e+05 1.027472e+05 1.027472e+05 1.029817e+05 1.029241e+05 1.028651e+05 1.028651e+05 1.029139e+05 1.029139e+05 1.029745e+05 1.027656e+05 1.031019e+05 1.029924e+05 1.028686e+05 1.028157e+05 1.029337e+05 1.028734e+05 1.029357e+05 1.028214e+05 1.028401e+05 1.028260e+05 1.028942e+05 1.028787e+05 1.029373e+05 1.029233e+05 1.028442e+05 1.028442e+05 1.028457e+05 1.028362e+05 1.028848e+05 1.028413e+05 1.028479e+05 1.028750e+05 1.028750e+05 1.028818e+05 1.028818e+05 1.027867e+05 1.027867e+05 1.028304e+05 1.028390e+05 1.028390e+05 1.028390e+05 1.027924e+05 1.027924e+05 1.027854e+05 1.027854e+05 1.027854e+05 1.027851e+05 1.027851e+05 1.027988e+05 1.028116e+05 1.027907e+05 1.027988e+05 1.027988e+05 1.027775e+05 1.027700e+05 1.027963e+05 1.027676e+05 1.027945e+05 1.027959e+05 1.028205e+05 1.028061e+05 1.027690e+05 1.027690e+05 1.027735e+05 1.028239e+05 1.027907e+05 1.031375e+05 1.029635e+05 1.028315e+05 1.031097e+05 1.031097e+05 1.030517e+05 1.030250e+05 1.030517e+05 1.028347e+05 1.029830e+05 1.027738e+05 1.027726e+05 1.027877e+05 1.027877e+05 1.027764e+05 1.038473e+05 1.038473e+05 1.038441e+05 1.038291e+05 1.038490e+05 1.038082e+05 1.037935e+05 1.037771e+05 1.037855e+05 1.037344e+05 1.037388e+05 1.037404e+05 1.037075e+05 1.036883e+05 1.036768e+05 1.036569e+05 1.036135e+05 1.035797e+05 1.035727e+05 1.035668e+05 1.035028e+05 1.034852e+05 1.034541e+05 1.034208e+05 1.033986e+05 1.033723e+05 1.033641e+05 1.033223e+05 1.032917e+05 1.032681e+05 1.032431e+05 1.032263e+05 1.031966e+05 1.031542e+05 1.031381e+05 1.030828e+05 1.030443e+05 1.030157e+05 1.029870e+05 1.029608e+05 1.029367e+05 1.029119e+05 1.028833e+05 1.028485e+05 1.028154e+05 1.027944e+05 1.027731e+05 1.027372e+05 1.027187e+05 1.026862e+05 1.026477e+05 1.026233e+05 1.025986e+05 1.025614e+05 1.025497e+05 1.024981e+05 1.024471e+05 1.024236e+05 1.023932e+05 1.023671e+05 1.023430e+05 1.023017e+05 1.022638e+05 1.022457e+05 1.022275e+05 1.021943e+05 1.021605e+05 1.021419e+05 1.021190e+05 1.020825e+05 1.020456e+05 1.020276e+05 1.020172e+05 1.019904e+05 1.019627e+05 1.019467e+05 1.019287e+05 1.019173e+05 1.019069e+05 1.018738e+05 1.018652e+05 1.018448e+05 1.018270e+05 1.018156e+05 1.017844e+05 1.017748e+05 1.017726e+05 1.017675e+05 1.017430e+05 1.017387e+05 1.017354e+05 1.017241e+05 1.017384e+05 1.017183e+05 1.017243e+05 1.017308e+05 1.017349e+05 1.017298e+05 1.017268e+05 1.017284e+05 1.017209e+05 1.017232e+05 1.017305e+05 1.017209e+05 1.017010e+05 1.017090e+05 1.017048e+05 1.016929e+05 1.017236e+05 1.017076e+05 1.017313e+05 1.017444e+05 1.017569e+05 1.017774e+05 1.017756e+05 1.017850e+05 1.017964e+05 1.017936e+05 1.018223e+05 1.018406e+05 1.018399e+05 1.018489e+05 1.018729e+05 1.018754e+05 1.019014e+05 1.019173e+05 1.019106e+05 1.019272e+05 1.019585e+05 1.019553e+05 1.019759e+05 1.020078e+05 1.019937e+05 1.020447e+05 1.020500e+05 1.020934e+05 1.020929e+05 1.021100e+05 1.021403e+05 1.021332e+05 1.021681e+05 1.022005e+05 1.022026e+05 1.022164e+05 1.022424e+05 1.022332e+05 1.022732e+05 1.022750e+05 1.023100e+05 1.023068e+05 1.023332e+05 1.023598e+05 1.023525e+05 1.023491e+05 1.023723e+05 1.024003e+05 1.024349e+05 1.024628e+05 1.024505e+05 1.024718e+05 1.025109e+05 1.025493e+05 1.025504e+05 1.025496e+05 1.025690e+05 1.026034e+05 1.026285e+05 1.026028e+05 1.026394e+05 1.026384e+05 1.026781e+05 1.026829e+05 1.027010e+05 1.027265e+05 1.027301e+05 1.027456e+05 1.027654e+05 1.027785e+05 1.027932e+05 1.028177e+05 1.028128e+05 1.027638e+05 1.027638e+05 1.027638e+05 1.027381e+05 1.027381e+05 1.027381e+05 1.027923e+05 1.027446e+05 1.027735e+05 1.027596e+05 1.028814e+05 1.028814e+05 1.028814e+05 1.028349e+05 1.028111e+05 1.028111e+05 1.028111e+05 1.027754e+05 1.028153e+05 1.034486e+05 1.034486e+05 1.034486e+05 1.034708e+05 1.033761e+05 1.033761e+05 1.033761e+05 1.033242e+05 1.020997e+05 1.020997e+05 1.020997e+05 1.020954e+05 1.021192e+05 1.021504e+05 1.025146e+05 1.025146e+05 1.025146e+05 1.024781e+05 1.024781e+05 1.030082e+05 1.030082e+05 1.030082e+05 1.030084e+05 1.025603e+05 1.025603e+05 1.025603e+05 1.025195e+05 1.025195e+05 1.037911e+05 1.037911e+05 1.037911e+05 1.020208e+05 1.020208e+05 1.020208e+05 1.020504e+05 1.019627e+05 1.019627e+05 1.019627e+05 1.026809e+05 1.026809e+05 1.026809e+05 1.026556e+05 1.019893e+05 1.019893e+05 1.020389e+05 1.020389e+05 1.020399e+05 1.020399e+05 1.020625e+05 1.027577e+05 1.027577e+05 1.027577e+05 1.027820e+05 1.027820e+05 1.026103e+05 1.026103e+05 1.026103e+05 1.026060e+05 1.026060e+05 1.028408e+05 1.028408e+05 1.028408e+05 1.028057e+05 1.028057e+05 1.034394e+05 1.034394e+05 1.021879e+05 1.021879e+05 1.021879e+05 1.022288e+05 1.018411e+05 1.018411e+05 1.018411e+05 1.018292e+05 1.018735e+05 1.021653e+05 1.021653e+05 1.021653e+05 1.020416e+05 1.020416e+05 1.020428e+05 1.030828e+05 1.030987e+05 1.030987e+05 1.027265e+05 1.027293e+05 1.027293e+05 1.017931e+05 1.019014e+05 1.019239e+05 1.028367e+05 1.028504e+05 1.028504e+05 1.028504e+05 1.028390e+05 1.028283e+05 1.028421e+05 1.028421e+05 1.028421e+05 1.028581e+05 1.028581e+05 1.026962e+05 1.026962e+05 1.026962e+05 1.027026e+05 1.026360e+05 1.026360e+05 1.026360e+05 1.026575e+05 1.034416e+05 1.034674e+05 1.034278e+05 1.035194e+05 1.035194e+05 1.023744e+05 1.023744e+05 1.023744e+05 1.024303e+05 1.026944e+05 1.026944e+05 1.026944e+05 1.027827e+05 1.027827e+05 1.027638e+05 1.024678e+05 1.024678e+05 1.024678e+05 1.025061e+05 1.022668e+05 1.022668e+05 1.022668e+05 1.022638e+05 1.023079e+05 1.025133e+05 1.025133e+05 1.025133e+05 1.025658e+05 1.028768e+05 1.028848e+05 1.021013e+05 1.021013e+05 1.021013e+05 1.021099e+05 1.024025e+05 1.024025e+05 1.024025e+05 1.023708e+05 1.028439e+05 1.028439e+05 1.028439e+05 1.028578e+05 1.028578e+05 1.023589e+05 1.023589e+05 1.023589e+05 1.023699e+05 1.025862e+05 1.025862e+05 1.025862e+05 1.025919e+05 1.028056e+05 1.028056e+05 1.028056e+05 1.027930e+05 1.019618e+05 1.019618e+05 1.019118e+05 1.018601e+05 1.018601e+05 1.019521e+05 1.019521e+05 1.019521e+05 1.018122e+05 1.018122e+05 1.018122e+05 1.017625e+05 1.027454e+05 1.027454e+05 1.027454e+05 1.027574e+05 1.027574e+05 1.034269e+05 1.034269e+05 1.034269e+05 1.033851e+05 1.033851e+05 1.018670e+05 1.024234e+05 1.024234e+05 1.024452e+05 1.028216e+05 1.028216e+05 1.028216e+05 1.028181e+05 1.024026e+05 1.024026e+05 1.024350e+05 1.024350e+05 1.029581e+05 1.029581e+05 1.029925e+05 1.027106e+05 1.027106e+05 1.025033e+05 1.025033e+05 1.025312e+05 1.025312e+05 1.026056e+05 1.026056e+05 1.026056e+05 1.026101e+05 1.018749e+05 1.019198e+05 1.021429e+05 1.021429e+05 1.021429e+05 1.020979e+05 1.022943e+05 1.022943e+05 1.022943e+05 1.022761e+05 1.022761e+05 1.027319e+05 1.027319e+05 1.027319e+05 1.027519e+05 1.027519e+05 1.021757e+05 1.022154e+05 1.037167e+05 1.037167e+05 1.037167e+05 1.037288e+05 1.025787e+05 1.025787e+05 1.025787e+05 1.025508e+05 1.025508e+05 1.026042e+05 1.025898e+05 1.021241e+05 1.021241e+05 1.021241e+05 1.021916e+05 1.021916e+05 1.020882e+05 1.020235e+05 1.020235e+05 1.022657e+05 1.022657e+05 1.022657e+05 1.023204e+05 1.023204e+05 1.022396e+05 1.022396e+05 1.022396e+05 1.023041e+05 1.023041e+05 1.025559e+05 1.025559e+05 1.