<?xml version="1.0"?>
 <VTKFile type="UnstructuredGrid" version="1.0" byte_order="LittleEndian" header_type="UInt64">
  <UnstructuredGrid>
    <FieldData>
     <DataArray type="Float64" Name="TimeValue" NumberOfTuples="1" format="ascii">
0.00028
     </DataArray>
    </FieldData>
   <Piece NumberOfPoints="3548" NumberOfCells="3379">
    <PointData>
     <DataArray type="Float64" Name="pointP" format="ascii">
-1.207853e+04 -1.501234e+04 -1.781096e+04 -2.095606e+04 -2.458401e+04 -2.655691e+04 -2.835504e+04 -3.144107e+04 -3.448878e+04 -3.584127e+04 -3.497025e+04 -3.298809e+04 -3.177622e+04 -3.704441e+04 -3.921915e+04 -4.320253e+04 -4.107838e+04 -3.589853e+04 -3.692424e+04 -3.968850e+04 -3.888315e+04 -3.338487e+04 -3.562884e+04 -4.045548e+04 -3.439339e+04 -2.926594e+04 -2.664965e+04 -3.323791e+04 -3.607207e+04 -1.581404e+04 -1.812809e+04 -1.589409e+04 -1.444839e+04 -1.870394e+04 -1.906425e+04 -2.266558e+04 -1.049370e+04 -1.159387e+04 -1.480084e+04 2.683335e+03 9.540322e+02 -6.661960e+03 -2.324026e+03 -5.432855e+03 -1.485426e+04 -9.187976e+02 -6.328378e+03 -4.332296e+03 -1.641598e+03 -1.231219e+04 8.747784e+01 -4.571435e+03 -1.476268e+04 -5.127023e+03 -1.555562e+03 -5.618985e+03 -6.807535e+03 -2.506639e+04 -1.346172e+04 -1.143768e+04 3.226035e+04 6.420735e+04 -5.207707e+03 -1.642142e+04 -2.134187e+04 -1.344062e+04 -3.222649e+04 -2.030331e+04 -2.137047e+04 1.065674e+04 1.332388e+04 8.278195e+02 1.005563e+03 -6.091926e+03 -1.570662e+01 -1.246418e+04 -1.568398e+04 -1.692359e+05 -3.379668e+05 -3.184020e+05 -2.704374e+05 -2.704374e+05 -2.318333e+05 -2.192373e+05 -2.145217e+05 -2.109026e+05 -2.109026e+05 -2.059691e+05 -1.927578e+05 -1.879033e+05 -1.840891e+05 -1.827676e+05 -1.768745e+05 -1.749127e+05 -1.704590e+05 -1.591426e+05 -1.553153e+05 -1.506308e+05 -1.438254e+05 -1.407866e+05 -1.375778e+05 -1.316316e+05 -1.316316e+05 -1.268560e+05 -1.203440e+05 -1.184985e+05 -1.146448e+05 -1.116821e+05 -1.078322e+05 -1.025839e+05 -9.735552e+04 -9.592294e+04 -9.366151e+04 -8.855964e+04 -8.675061e+04 -7.990497e+04 -7.843672e+04 -7.575833e+04 -7.272611e+04 -7.115158e+04 -6.511842e+04 -6.416105e+04 -6.000388e+04 -5.713688e+04 -5.511136e+04 -5.057547e+04 -4.957316e+04 -4.418488e+04 -4.418488e+04 -4.148494e+04 -3.756109e+04 -3.242011e+04 -3.242011e+04 -2.827890e+04 -2.461423e+04 -2.461423e+04 -2.123985e+04 -1.802699e+04 -1.600413e+04 -1.218341e+04 -1.218341e+04 -7.731784e+03 -7.731784e+03 -5.158350e+03 -2.837804e+03 3.460856e+02 2.373216e+03 4.082613e+03 8.249955e+03 8.249955e+03 1.122358e+04 1.328907e+04 1.525781e+04 1.830707e+04 1.830707e+04 -4.676554e+03 -4.676554e+03 -4.676554e+03 -1.346812e+03 6.051907e+04 6.051907e+04 6.051907e+04 2.569840e+04 2.569840e+04 2.569840e+04 3.545662e+04 -3.662473e+04 -3.662473e+04 -3.662473e+04 -4.418122e+04 -8.505784e+04 -8.505784e+04 -8.505784e+04 -9.425571e+04 -1.989413e+05 -1.989413e+05 -1.989413e+05 -1.969291e+05 -1.925030e+05 -1.749129e+05 -1.749129e+05 -1.749129e+05 -1.713113e+05 -3.117594e+02 -3.117594e+02 -3.117594e+02 -6.873251e+04 -6.873251e+04 -6.873251e+04 -6.521505e+04 -6.671510e+04 -2.749901e+05 -2.749901e+05 -2.749901e+05 -3.232209e+05 -2.629724e+04 -2.629724e+04 -2.629724e+04 -1.832002e+04 -1.832002e+04 -9.124581e+04 -9.124581e+04 -9.124581e+04 -9.628332e+04 -1.238432e+05 -9.849557e+04 -9.849557e+04 -9.849557e+04 -1.078250e+05 -1.722952e+05 -1.290543e+05 -1.290543e+05 -1.290543e+05 -1.373634e+05 -1.542427e+05 -1.542427e+05 -1.542427e+05 -1.762443e+04 -1.762443e+04 -5.793942e+04 -5.793942e+04 -1.217904e+05 -1.217904e+05 -1.217904e+05 -4.194979e+04 -1.577728e+05 -1.577728e+05 -1.577728e+05 -4.781384e+04 -2.910209e+05 -2.910209e+05 -4.689294e+05 -4.689294e+05 -2.877175e+05 -2.877175e+05 -2.877175e+05 -2.348179e+05 -2.348179e+05 -4.537032e+05 -4.537032e+05 -4.537032e+05 -4.195275e+05 -4.195275e+05 -1.442933e+04 -2.480099e+05 -2.480099e+05 -2.480099e+05 -2.428348e+05 -5.635247e+04 -5.635247e+04 -5.635247e+04 -5.939468e+04 -5.939468e+04 -1.030139e+05 -1.030139e+05 -1.030139e+05 -9.130957e+04 -9.130957e+04 -1.363387e+05 -1.363387e+05 -1.363387e+05 -1.399000e+05 -1.399000e+05 -1.605241e+05 -1.605241e+05 -1.605241e+05 -1.502486e+05 -1.502486e+05 -1.770140e+04 -1.770140e+04 -1.770140e+04 -1.608188e+04 -2.134400e+04 -2.134400e+04 -2.134400e+04 -2.917939e+04 -1.102125e+05 -1.102125e+05 -1.102125e+05 -1.194132e+05 -1.194132e+05 3.165937e+04 3.165937e+04 3.165937e+04 -3.007135e+04 -3.007135e+04 -3.007135e+04 -2.581319e+04 -2.581319e+04 1.497025e+04 1.497025e+04 1.497025e+04 3.182050e+04 3.182050e+04 -4.793389e+04 -4.793389e+04 -4.793389e+04 -3.691771e+04 -1.107656e+05 -1.107656e+05 -1.814312e+05 -1.814312e+05 -1.814312e+05 -5.394388e+04 -5.394388e+04 -4.213654e+04 -4.213654e+04 -3.532678e+04 -3.532678e+04 -3.532678e+04 -3.540578e+04 -3.087672e+05 -3.087672e+05 -3.087672e+05 -2.693567e+05 -3.411801e+04 -3.411801e+04 -2.913243e+05 -2.913243e+05 -2.913243e+05 -9.947276e+04 -9.947276e+04 -9.947276e+04 -1.098777e+05 -1.098777e+05 -4.590817e+05 -4.590817e+05 -4.590817e+05 -5.084798e+05 -5.084798e+05 -1.266449e+05 -1.266449e+05 -1.105525e+05 -1.339323e+05 -1.339323e+05 -1.339323e+05 -5.059643e+04 -5.059643e+04 -3.607207e+04 -1.115553e+05 -1.115553e+05 -1.115553e+05 -4.116455e+04 -9.456965e+04 -5.507211e+04 -1.343075e+05 -1.343075e+05 -1.343075e+05 -1.629720e+05 -1.629720e+05 -1.629720e+05 -1.000608e+05 -1.000608e+05 -1.000608e+05 -3.506808e+05 -3.506808e+05 -3.506808e+05 -2.806196e+05 -2.806196e+05 -1.912672e+05 -1.912672e+05 -1.912672e+05 -2.063609e+05 -2.063609e+05 -1.828386e+05 -1.828386e+05 -1.760583e+05 -1.760583e+05 -1.904969e+05 -1.904969e+05 -1.847497e+05 -1.926393e+04 -1.926393e+04 -2.127951e+04 -2.127951e+04 -2.161889e+04 -2.161889e+04 7.942711e+04 7.322486e+04 7.942711e+04 7.942711e+04 -7.658003e+04 -9.255921e+04 -9.255921e+04 -1.802918e+05 -1.802918e+05 -1.802918e+05 -1.997026e+05 -1.997026e+05 -1.997026e+05 -3.996737e+04 -9.879943e+04 -9.879943e+04 -7.911641e+04 -7.911641e+04 -8.904319e+04 -5.882116e+04 -5.231788e+04 6.420735e+04 -1.623879e+05 -1.623879e+05 -1.033023e+05 -1.033023e+05 -2.620580e+04 -1.812809e+04 -1.155922e+05 -1.155922e+05 -1.647293e+05 -1.647293e+05 -1.647293e+05 -7.610142e+04 -1.868795e+05 -2.458401e+04 -3.053477e+04 -3.053477e+04 -1.906425e+04 -1.000756e+05 -1.000756e+05 -1.442933e+04 -7.330274e+04 -7.330274e+04 -4.216115e+04 -4.564778e+04 -4.564778e+04 -4.564778e+04 -4.569734e+04 -1.061493e+05 -1.061493e+05 -4.529088e+04 -6.523956e+04 -6.523956e+04 -6.523956e+04 -4.730962e+04 -4.730962e+04 -6.146335e+04 -4.204798e+04 -4.204798e+04 -4.055030e+04 -3.144107e+04 -3.298949e+04 -5.718055e+04 -5.718055e+04 -1.797205e+05 -1.203657e+05 -1.359727e+05 -1.359727e+05 -1.169501e+05 -6.807535e+03 -1.170035e+05 -1.170035e+05 -3.897297e+04 -2.655691e+04 -3.542673e+04 -1.576263e+05 -8.991064e+04 -6.162389e+04 -5.299569e+04 -5.299569e+04 -1.099607e+05 -1.165880e+05 -1.962706e+05 -1.156858e+05 -1.156858e+05 -1.156858e+05 -9.755608e+04 -9.755608e+04 -2.879879e+04 -2.879879e+04 -3.923682e+04 -4.267474e+04 -5.686949e+04 -5.226151e+05 -2.001953e+05 -2.001953e+05 -2.261673e+04 -1.133278e+05 -1.769432e+05 -1.589962e+05 -3.357682e+04 -1.365237e+05 -8.920047e+04 -2.128091e+05 -2.356822e+05 -2.356822e+05 -1.281347e+05 -1.229638e+05 -1.922705e+05 -2.924508e+05 -3.916280e+05 -4.229297e+04 -4.229297e+04 -4.255411e+04 -2.062644e+05 -2.099260e+05 -2.099260e+05 -2.105715e+05 -6.396986e+04 -6.396986e+04 -6.396986e+04 -6.783321e+04 -4.658322e+05 -2.528740e+05 -9.384961e+04 -9.384961e+04 -9.384961e+04 -9.093745e+04 -1.649863e+05 -2.443861e+05 -3.834183e+05 -3.834183e+05 -1.415541e+05 -1.545785e+05 -1.536324e+05 -1.667305e+05 -1.940578e+05 -5.615956e+04 -3.215805e+05 -3.218440e+05 -3.218440e+05 -3.192516e+05 -3.192516e+05 -4.252107e+05 -4.252107e+05 -1.367494e+05 -1.367494e+05 -3.991203e+05 -2.625047e+05 -4.824071e+04 -4.824071e+04 -9.900868e+04 -9.900868e+04 -6.894632e+04 -2.251462e+05 -7.548999e+04 -7.702910e+04 -2.408280e+05 -2.328818e+05 -5.096246e+05 -5.096246e+05 -4.426457e+05 -4.512815e+05 -2.449978e+04 -4.388510e+05 -4.388510e+05 -2.193283e+05 -2.095002e+05 -5.334276e+05 -4.881010e+05 -4.705642e+05 -1.962762e+05 -2.573261e+05 -6.922709e+04 -6.922709e+04 -1.762986e+05 -2.514926e+04 -4.457296e+05 -2.812643e+05 -4.504345e+04 -1.304426e+05 -1.304426e+05 -1.304426e+05 -1.262576e+05 -1.262576e+05 -1.677508e+05 -1.717917e+05 -1.172553e+05 -1.189967e+05 -2.989573e+05 -4.190928e+05 -8.797234e+04 -2.331306e+05 -5.134600e+05 -1.558092e+05 -2.905707e+05 -2.537657e+05 -2.537657e+05 -2.537657e+05 -1.875447e+05 -1.738286e+05 -9.134526e+04 -8.617574e+04 -3.182936e+05 -3.182936e+05 -2.933260e+05 -2.332119e+05 -2.332119e+05 -2.504959e+05 -2.504959e+05 -1.020705e+05 -2.465460e+05 -2.656224e+05 -2.656224e+05 -1.300330e+05 -1.300330e+05 -8.558467e+04 -1.175093e+05 -1.175093e+05 -1.181513e+05 -2.269565e+05 -2.269565e+05 -2.187479e+05 -2.187479e+05 -2.187479e+05 -2.393344e+05 -9.364715e+04 -2.532746e+04 -1.885510e+05 -1.885510e+05 -1.888432e+05 -1.624921e+04 -1.101355e+05 -9.928284e+04 -2.122792e+05 -3.480628e+05 -7.364718e+04 -6.946224e+04 -1.631762e+05 -1.631762e+05 -7.510729e+04 -7.510729e+04 -1.489410e+05 -2.169581e+05 -2.038522e+05 -2.038522e+05 -1.135714e+05 -1.044533e+05 -1.624921e+04 -1.141159e+05 -1.306643e+05 -1.306643e+05 -6.561388e+04 -2.051161e+05 -2.051161e+05 -2.206690e+05 -2.044102e+05 -2.044102e+05 -2.053980e+04 -2.053980e+04 -2.757617e+04 -1.206008e+05 -1.206008e+05 -1.206008e+05 -1.299238e+05 -2.126176e+05 -3.996966e+04 -6.393272e+03 -1.082808e+05 -1.082808e+05 -1.622126e+05 -1.622126e+05 -1.720862e+05 -1.432121e+04 -1.807438e+05 -1.894664e+05 -1.894664e+05 -1.168557e+05 -2.053037e+05 -2.053037e+05 -1.969775e+05 -1.842111e+05 -1.005129e+05 -1.656565e+05 -1.656565e+05 -1.656565e+05 -4.072856e+04 -5.345170e+04 -1.479589e+05 -1.355831e+05 -1.355831e+05 -1.405737e+05 -1.405737e+05 -1.405737e+05 -1.543270e+05 -1.948407e+05 -1.071710e+05 -1.071710e+05 -9.669849e+04 -1.843949e+05 -1.492872e+05 -1.492872e+05 -1.492872e+05 -1.509437e+05 -1.276639e+05 -1.213139e+05 1.252502e+04 -5.798562e+03 -1.567172e+04 -5.668812e+04 -1.075628e+05 -9.356536e+04 -8.042782e+04 -8.042782e+04 -1.590704e+05 -1.590704e+05 -1.773333e+05 -1.734983e+05 -7.564298e+04 -7.564298e+04 -7.564298e+04 -1.569188e+05 -5.861098e+02 -1.382005e+05 7.486111e+03 1.081776e+04 -9.121611e+04 -7.975164e+04 -1.514865e+05 -1.694256e+05 -1.510169e+05 -1.366901e+05 -1.366901e+05 -4.936544e+04 -4.936544e+04 -4.936544e+04 3.216688e+04 -9.134721e+04 -8.343057e+04 -8.119940e+04 -4.630451e+04 -7.344090e+04 -6.418353e+04 9.772292e+03 -1.762224e+04 -1.053341e+05 -1.053341e+05 -1.053341e+05 -1.243303e+05 -1.310616e+05 -4.443255e+04 -4.443255e+04 -8.548943e+04 -8.548943e+04 -2.185742e+04 -1.234881e+04 -6.468149e+04 -3.953460e+03 -5.840724e+04 4.355488e+04 -1.488325e+04 -1.488325e+04 1.006657e+04 3.669751e+04 3.669751e+04 5.064566e+02 5.064566e+02 1.719665e+04 1.719665e+04 -1.718508e+04 3.137916e+04 3.137916e+04 -2.896742e+03 4.871784e+04 6.512347e+04 7.297440e+04 1.309877e+04 1.309877e+04 1.309877e+04 -1.735255e+05 -1.735255e+05 -1.735255e+05 -1.764204e+05 -1.764204e+05 1.960186e+03 1.960186e+03 1.960186e+03 7.064320e+03 -1.817691e+05 -1.817691e+05 -1.794073e+05 -1.794073e+05 -2.441249e+05 -2.441249e+05 -2.441249e+05 -4.541396e+03 -4.541396e+03 -4.541396e+03 -7.637618e+03 -7.634703e+04 -7.634703e+04 -7.634703e+04 -6.980777e+04 -5.704491e+04 -5.704491e+04 -1.008399e+05 -1.008399e+05 -1.008399e+05 -1.192687e+05 -1.192687e+05 -1.192687e+05 -1.517793e+05 -1.517793e+05 -1.517793e+05 -1.598129e+05 -1.598129e+05 -1.598129e+05 -1.616902e+05 -2.997376e+04 -2.997376e+04 -2.997376e+04 -5.319202e+04 -5.319202e+04 -5.319202e+04 -1.972232e+04 -1.972232e+04 -1.972232e+04 -3.575458e+04 -3.575458e+04 -3.575458e+04 -4.229671e+04 -4.229671e+04 1.615074e+04 1.615074e+04 4.662908e+03 -8.413603e+03 3.699066e+04 3.699066e+04 3.699066e+04 -3.260914e+04 -3.260914e+04 -1.117764e+05 -1.117764e+05 -1.117764e+05 -8.166491e+04 -8.166491e+04 -8.166491e+04 -1.163230e+05 -1.163230e+05 -1.163230e+05 -1.208218e+05 -1.309687e+05 -1.309687e+05 -1.309687e+05 -1.291062e+05 -1.366910e+05 -1.366910e+05 -1.366910e+05 -1.115035e+05 -1.115035e+05 -1.115035e+05 -1.122092e+05 -1.148060e+05 -8.505304e+04 -8.505304e+04 -8.505304e+04 -1.349692e+05 -1.349692e+05 -1.214690e+05 -1.214690e+05 -1.178381e+05 -1.066854e+05 -1.066854e+05 -6.963455e+04 -6.963455e+04 -6.963455e+04 -5.739755e+04 -5.739755e+04 -5.909214e+04 -5.909214e+04 -5.909214e+04 -1.183889e+05 -3.663050e+04 -3.663050e+04 -3.663050e+04 -2.007314e+03 -4.476139e+03 6.463422e+04 6.463422e+04 2.488934e+04 2.488934e+04 -6.031921e+04 -6.031921e+04 -6.031921e+04 -5.550896e+04 -5.085105e+04 -1.707455e+05 -1.707455e+05 -1.139149e+05 -1.822228e+05 -1.368770e+05 -1.368770e+05 -1.368770e+05 -9.891172e+04 -1.562538e+05 -1.562538e+05 -1.127339e+05 -8.809385e+04 -8.809385e+04 -8.755719e+04 -4.063109e+04 -4.063109e+04 -7.977750e+04 -7.977750e+04 -7.977750e+04 -2.044579e+05 -2.044579e+05 -2.044579e+05 -1.634244e+05 -1.670414e+05 -4.158701e+04 -1.890550e+05 -1.890550e+05 -1.890550e+05 -1.950619e+05 -1.403820e+05 -1.403820e+05 -6.923989e+04 -6.923989e+04 -1.026359e+05 -1.562865e+05 -1.562865e+05 -1.471467e+05 -1.471467e+05 -9.827109e+04 -9.827109e+04 -9.827109e+04 -1.791063e+04 -1.791063e+04 6.129739e+01 6.129739e+01 -1.258415e+05 -8.919777e+04 -8.919777e+04 -8.919777e+04 -1.049393e+05 -1.049393e+05 -5.539304e+04 -5.539304e+04 -1.729320e+05 -1.729320e+05 -8.320882e+03 -8.320882e+03 -9.355429e+04 -7.295628e+04 -7.295628e+04 -7.288022e+04 -7.288022e+04 -1.513784e+05 -1.513784e+05 -1.513784e+05 -7.814722e+04 -7.814722e+04 -7.814722e+04 -1.592776e+05 -1.200196e+05 -1.056624e+05 -1.000708e+05 -1.000708e+05 -9.630230e+04 -1.444456e+05 -6.622075e+04 -6.622075e+04 -5.083155e+04 -5.083155e+04 -5.083155e+04 -1.643023e+05 -1.642431e+05 -1.642431e+05 -4.854131e+04 -4.854131e+04 -4.572940e+04 -7.335503e+04 -7.427715e+04 -7.427715e+04 -1.510761e+04 -1.510761e+04 -1.510761e+04 -4.158390e+04 -4.158390e+04 -2.847237e+03 -5.922746e+04 -9.787313e+04 -9.787313e+04 1.955513e+04 -1.067361e+05 -1.067361e+05 -9.120980e+04 -8.257821e+04 -8.257821e+04 -8.277100e+04 -2.724030e+04 -2.724030e+04 -1.140785e+05 -1.140785e+05 -4.050846e+04 -8.315889e+04 -8.315889e+04 -6.942931e+04 -6.942931e+04 -6.700196e+04 -4.415338e+04 -9.477457e+04 -9.477457e+04 -6.458070e+04 -7.181987e+04 -1.472905e+05 -1.472905e+05 -1.001460e+05 -8.663414e+04 -1.740410e+04 -1.740410e+04 -1.740410e+04 -2.639988e+04 -2.639988e+04 -2.639988e+04 -5.937978e+04 -5.937978e+04 1.821943e+03 1.821943e+03 1.821943e+03 -7.866156e+04 -1.692369e+04 -2.695337e+04 -2.477428e+04 -9.256963e+03 -9.256963e+03 -9.256963e+03 -6.394681e+04 -3.446467e+04 -3.446467e+04 -4.386412e+04 -4.386412e+04 -4.386412e+04 2.007594e+04 -7.102960e+04 -3.923394e+04 -3.923394e+04 -2.857455e+04 -2.857455e+04 -2.857455e+04 -3.222841e+04 -1.535714e+04 -1.033924e+05 -1.033924e+05 -1.033924e+05 -9.236843e+04 -9.236843e+04 -8.510031e+04 2.067787e+04 -2.233639e+04 -5.102738e+04 -2.228412e+04 -2.228412e+04 -2.236582e+04 -2.193425e+04 -2.193425e+04 9.205126e+03 9.205126e+03 9.205126e+03 -3.427062e+04 -3.480176e+04 -7.411489e+04 -1.311623e+04 -9.749841e+03 -1.853486e+04 -6.939405e+04 2.097963e+04 2.097963e+04 2.183687e+04 4.822050e+03 4.822050e+03 -2.606117e+04 1.625182e+04 1.625182e+04 1.625182e+04 5.925769e+03 5.925769e+03 -4.947805e+04 -4.947805e+04 -4.481482e+04 -6.288570e+03 -6.288570e+03 6.108576e+03 -3.369521e+04 -2.411212e+04 1.209003e+04 2.418337e+04 5.313192e+03 -1.718431e+04 2.418337e+04 4.196798e+04 -2.227333e+05 -2.227333e+05 -1.391350e+05 -1.391350e+05 -2.111813e+05 -2.111813e+05 -1.487161e+05 -1.650825e+05 -2.114674e+05 -2.175208e+05 -2.930287e+05 3.532181e+04 3.532181e+04 -1.477027e+04 -1.120771e+05 -1.177856e+05 9.755450e+03 9.755450e+03 -2.280122e+05 -2.183433e+05 -2.320022e+05 -2.213695e+05 -2.213695e+05 -2.213695e+05 -2.055347e+05 -2.055347e+05 -2.055347e+05 -2.261160e+05 -1.989425e+05 -1.989425e+05 -1.943006e+05 -1.943006e+05 -2.160737e+05 -2.093773e+05 -2.092852e+05 -4.206602e+04 3.335167e+04 4.970846e+04 6.437008e+04 -1.910122e+02 -1.910122e+02 -6.278556e+04 -1.847846e+05 -2.151946e+05 -1.954305e+05 -1.887464e+05 -1.887464e+05 -1.588033e+05 -1.262119e+05 -9.145788e+04 -6.688845e+04 -6.688845e+04 -4.308212e+04 3.895370e+03 -9.248810e+03 1.765304e+04 1.765304e+04 1.765304e+04 -4.787535e+04 -2.321419e+04 -3.121518e+04 -3.121518e+04 -1.373673e+05 -4.806773e+04 -4.806773e+04 -9.312915e+04 -1.309468e+05 -7.669331e+04 -7.669331e+04 1.442434e+04 1.442434e+04 1.442434e+04 1.138819e+04 1.138819e+04 1.834152e+04 -8.396710e+04 -7.406535e+04 -6.164164e+04 -3.521283e+04 1.734921e+03 -1.435639e+05 -1.078329e+05 -1.063002e+05 -3.655874e+04 -8.260656e+04 -2.126541e+04 -5.377942e+04 -2.547804e+04 -2.547804e+04 -5.189946e+03 -3.665796e+04 -2.662420e+04 -6.500215e+03 -3.398154e+04 1.536244e+04 5.793615e+03 5.793615e+03 8.316532e+03 -9.366918e+03 2.854467e+03 -3.324348e+04 -3.324348e+04 -4.344958e+04 -4.494829e+04 -1.535555e+04 -1.854133e+04 -5.440376e+02 -1.344614e+04 8.207508e+03 -3.611848e+04 5.452086e+03 5.452086e+03 5.452086e+03 6.498604e+03 1.312867e+03 1.312867e+03 -1.280135e+04 -1.280135e+04 -2.675175e+03 -4.221638e+03 -4.221638e+03 1.432126e+04 -1.087067e+04 -2.120343e+03 -7.177161e+03 1.521690e+04 1.034241e+04 1.955513e+04 1.955513e+04 1.737027e+04 -4.075904e+04 8.241504e+03 8.241504e+03 1.071481e+04 1.071481e+04 -3.386568e+03 1.521054e+04 1.372894e+04 1.079789e+04 1.079789e+04 -4.269536e+04 -4.269536e+04 -1.496287e+04 7.415170e+03 1.240688e+05 2.346134e+05 8.282412e+04 1.630804e+04 -2.028591e+05 -2.028591e+05 -2.028591e+05 -2.108137e+05 -2.214023e+05 -2.214023e+05 -2.214023e+05 -2.223560e+05 -6.857147e+04 -6.857147e+04 -9.862191e+04 -9.862191e+04 -1.035340e+05 -7.026207e+04 -7.026207e+04 -7.026207e+04 -1.614578e+04 -2.523215e+05 -2.523215e+05 -2.523215e+05 -2.540517e+05 -2.385952e+05 -2.278845e+05 -1.436890e+05 -1.436890e+05 -3.194097e+05 -4.215572e+04 -4.215572e+04 -4.215572e+04 -4.329502e+05 -4.329502e+05 -4.329502e+05 -4.169195e+05 -4.169195e+05 -4.895905e+05 -3.117313e+05 2.327718e+03 -2.604327e+05 -2.604327e+05 -1.566852e+05 -3.379668e+05 -3.071050e+05 -3.071050e+05 -3.071050e+05 -2.582347e+05 -2.582347e+05 -4.895905e+05 -5.562160e+05 -4.573841e+05 -3.070312e+05 -1.132507e+06 -1.132507e+06 -6.769914e+05 -4.693564e+05 -4.059680e+05 -2.601781e+05 -2.292228e+05 -2.120786e+05 -2.120786e+05 -1.930277e+05 -1.785191e+05 -1.624277e+05 -1.624277e+05 -1.624277e+05 -1.461073e+05 -1.461073e+05 -1.105158e+05 -8.669036e+04 -8.669036e+04 -4.133766e+02 -7.029873e+04 -7.029873e+04 -7.029873e+04 -6.940891e+04 -6.940891e+04 -9.396895e+04 -9.396895e+04 -9.396895e+04 -1.840891e+05 -1.840891e+05 -6.598122e+04 1.346857e+04 1.346857e+04 1.346857e+04 -1.146817e+05 -1.146817e+05 -1.146817e+05 -1.094516e+05 -1.073512e+05 -1.777760e+04 -1.777760e+04 -1.777760e+04 -1.298865e+05 -1.298865e+05 -1.298865e+05 -1.872877e+05 -1.872877e+05 -1.872877e+05 -1.856676e+05 -1.856676e+05 -1.575271e+05 -1.575271e+05 -1.575271e+05 -9.405929e+04 -9.405929e+04 -1.693776e+05 -1.693776e+05 -1.693776e+05 -1.663270e+05 -1.663270e+05 -1.421934e+05 -1.421934e+05 -1.421934e+05 -2.349740e+04 -2.349740e+04 -2.349740e+04 -1.328650e+05 -1.328650e+05 -1.328650e+05 -1.430150e+05 -1.430150e+05 -2.776600e+04 -2.776600e+04 -2.776600e+04 -2.062726e+04 -2.062726e+04 5.148449e+04 2.682689e+03 2.682689e+03 2.682689e+03 7.850294e+03 -4.430377e+04 -4.430377e+04 -4.430377e+04 -3.771351e+04 -5.494517e+03 -5.494517e+03 -5.494517e+03 -1.005394e+05 -1.110400e+05 -8.620737e+04 -8.620737e+04 -8.620737e+04 -9.015699e+04 2.859003e+03 2.859003e+03 2.859003e+03 -1.574796e+05 -1.574796e+05 -1.574796e+05 -1.508524e+05 -1.508524e+05 -1.294084e+05 -1.294084e+05 -1.294084e+05 -1.316107e+05 -1.432007e+05 -1.432007e+05 -1.332967e+05 -1.332967e+05 -1.591426e+05 -1.558943e+05 -1.530854e+05 -9.603734e+04 -3.216244e+05 -1.597420e+05 -1.785191e+05 -1.789966e+05 -1.789966e+05 -1.373622e+04 -1.373622e+04 -1.373622e+04 -7.903687e+04 -7.903687e+04 2.317094e+04 2.317094e+04 2.317094e+04 -1.898542e+05 -1.898542e+05 -1.898542e+05 -5.713688e+04 -5.713688e+04 -1.184985e+05 -1.184985e+05 -8.422745e+04 -8.422745e+04 -8.422745e+04 -1.122209e+05 -1.122209e+05 -1.122209e+05 -1.256390e+05 -1.256390e+05 -1.256390e+05 -1.921303e+05 -2.827890e+04 -2.827890e+04 -1.025839e+05 -1.025839e+05 -8.855964e+04 -8.855964e+04 -1.454302e+05 -1.454302e+05 -1.512923e+05 -1.752202e+05 -1.752202e+05 -1.752202e+05 -1.745118e+05 -2.717901e+05 -2.374310e+05 -1.596151e+05 -5.298069e+04 -5.298069e+04 -5.298069e+04 -1.358089e+05 -1.358089e+05 -1.939949e+05 -1.939949e+05 -2.013233e+05 -2.013233e+05 -2.042190e+05 -2.042190e+05 -1.167327e+05 -1.167327e+05 -1.243053e+05 -1.714924e+05 -1.714924e+05 -6.533167e+04 -6.533167e+04 -6.533167e+04 -1.315523e+05 -1.241318e+05 -1.569912e+05 -7.670675e+04 -7.670675e+04 -7.670675e+04 -8.079975e+04 -8.079975e+04 -8.079975e+04 -1.004776e+05 -5.568685e+04 -5.568685e+04 -5.568685e+04 -4.671695e+04 -4.671695e+04 -4.671695e+04 -1.092422e+05 -1.092422e+05 -1.892098e+05 -1.820023e+05 -8.572219e+04 -8.572219e+04 -9.393119e+04 -9.393119e+04 -9.651732e+04 -9.243036e+04 -1.423386e+05 -1.063995e+05 -1.103035e+05 -1.103035e+05 -1.150455e+05 -7.677830e+04 -4.941698e+04 -4.941698e+04 -1.498107e+05 -1.536101e+05 -7.300626e+04 -7.300626e+04 -5.370048e+04 -9.681789e+04 -9.681789e+04 -1.024888e+05 -6.151095e+04 -6.151095e+04 -6.151095e+04 -9.254917e+04 -8.879655e+04 -6.548818e+04 -6.548818e+04 -6.548818e+04 -4.338880e+04 -4.338880e+04 -1.660337e+05 -1.055234e+05 -1.238972e+05 -1.238972e+05 -1.201199e+05 -2.814509e+04 -1.050967e+05 -1.050967e+05 -1.050967e+05 -1.024766e+05 -9.710004e+04 -1.937880e+04 -1.937880e+04 -1.937880e+04 -2.418996e+04 -4.075051e+04 -4.075051e+04 -4.049472e+04 -4.049472e+04 -7.826151e+04 -1.150183e+05 -1.050709e+05 -1.107818e+05 -7.219863e+04 -7.219863e+04 -7.219863e+04 -6.991009e+04 -6.991009e+04 -2.883583e+04 -2.883583e+04 -2.883583e+04 -9.734731e+04 -4.036672e+04 -3.663107e+04 -3.663107e+04 -6.474644e+04 -6.474644e+04 -8.034754e+04 -8.728939e+04 -5.136362e+04 -5.136362e+04 -5.136362e+04 -2.053797e+04 -2.053797e+04 -4.457977e+03 -4.457977e+03 -4.457977e+03 -4.834503e+04 -4.834503e+04 -5.450864e+04 -3.608288e+04 -3.608288e+04 1.030524e+04 1.030524e+04 4.996284e+03 4.996284e+03 -5.611597e+04 -6.567558e+04 -6.567558e+04 1.956625e+03 1.956625e+03 -8.155827e+04 -3.096709e+04 -3.485656e+04 -3.485656e+04 -5.236324e+04 -2.358467e+04 -2.358467e+04 -4.491264e+04 -4.491264e+04 -4.491264e+04 -3.917378e+04 -1.162952e+03 -1.162952e+03 -1.162952e+03 -1.322354e+04 -5.043150e+03 -9.432454e+04 -9.432454e+04 -9.432454e+04 -6.495177e+04 -3.203845e+04 -1.762652e+04 -2.926557e+04 -3.774617e+04 -5.291319e+04 -7.622626e+04 -1.245982e+04 -1.245982e+04 -2.527302e+03 2.126753e+04 2.126753e+04 2.126753e+04 -1.596659e+04 -1.550318e+04 -6.049696e+04 -1.131782e+04 -7.350355e+03 -7.336710e+03 -5.667150e+04 -8.193680e+02 -8.193680e+02 -1.295520e+04 -4.588030e+04 2.635098e+04 2.580407e+04 -3.576505e+04 -3.576505e+04 -2.574882e+04 7.894959e+03 2.635098e+04 1.220280e+04 1.220280e+04 1.220280e+04 1.397229e+04 -3.121077e+04 -7.880604e+03 2.931719e+04 1.968849e+04 1.968849e+04 1.968849e+04 1.416044e+04 1.416044e+04 2.931719e+04 -4.947062e+02 -4.947062e+02 2.643918e+04 -9.968125e+03 -9.968125e+03 -1.230092e+04 -3.301239e+02 3.201385e+04 3.201385e+04 3.201385e+04 8.537538e+03 1.393406e+04 1.393406e+04 2.708077e+04 -4.133766e+02 -4.133766e+02 3.469984e+04 2.879453e+04 3.052633e+04 2.187932e+04 2.187932e+04 1.852631e+04 3.814151e+04 3.782481e+04 3.782481e+04 4.300839e+04 3.469984e+04 3.469984e+04 4.070627e+04 -9.592294e+04 -1.704590e+05 -2.109026e+05 -2.318333e+05 -2.318333e+05 -1.146448e+05 -1.416823e+05 -1.416823e+05 -1.748103e+05 -1.769516e+05 -2.059691e+05 -2.059691e+05 -2.145217e+05 -1.802771e+05 -2.363949e+05 -2.258956e+05 -2.045890e+05 -6.903575e+04 -1.976199e+04 1.069790e+04 -1.234340e+05 -2.212015e+05 -2.192946e+05 -1.853765e+05 -4.138450e+04 -4.091041e+04 2.817020e+02 6.408887e+03 -1.245380e+05 4.064543e+03 -1.315973e+05 7.267568e+03 1.731968e+04 1.731968e+04 1.731968e+04 -9.244811e+03 -7.843672e+04 -7.843672e+04 -7.456156e+04 -1.282167e+05 -1.375778e+05 -1.129116e+05 -6.000388e+04 -1.078322e+05 -7.575833e+04 -4.418488e+04 -3.756109e+04 -3.756109e+04 -2.461423e+04 -1.218341e+04 -7.272611e+04 -4.538831e+04 -4.538831e+04 -6.970889e+04 -5.057547e+04 -7.731784e+03 -4.286769e+04 -1.098554e+04 -5.158350e+03 -3.601597e+04 -1.290517e+04 -1.600413e+04 -1.600413e+04 -3.242011e+04 -2.123985e+04 -2.401513e+04 8.249955e+03 1.122358e+04 1.122358e+04 -2.837804e+03 -4.002968e+04 2.373216e+03 2.373216e+03 -1.587656e+04 1.329582e+04 1.329582e+04 7.621998e+03 7.621998e+03 -6.039385e+03 3.460856e+02 -1.210864e+04 -1.401967e+04 1.817189e+04 1.817189e+04 1.817189e+04 -3.264283e+04 -1.258032e+03 4.082613e+03 1.725527e+04 -9.023265e+03 -3.286982e+04 -2.704457e+04 6.929594e+03 -2.102616e+04 4.561395e+02 4.561395e+02 -9.444408e+02 1.388780e+04 1.388780e+04 -6.163374e+03 -6.163374e+03 -8.593789e+03 -5.972074e+04 3.113028e+03 9.309862e+03 1.179017e+04 2.268947e+04 1.905037e+04 9.458315e+03 1.139992e+03 5.313659e+03 1.580493e+04 -1.207853e+04 -1.501234e+04 -1.781096e+04 -2.095606e+04 -2.458401e+04 -2.655691e+04 -2.835504e+04 -3.144107e+04 -3.448878e+04 -3.584127e+04 -3.497025e+04 -3.298809e+04 -3.177622e+04 -3.704441e+04 -3.921915e+04 -4.320253e+04 -4.107838e+04 -3.589853e+04 -3.692424e+04 -3.968850e+04 -3.888315e+04 -3.338487e+04 -3.562884e+04 -4.045548e+04 -3.439339e+04 -2.926594e+04 -2.664965e+04 -3.323791e+04 -3.607207e+04 -1.581404e+04 -1.812809e+04 -1.589409e+04 -1.444839e+04 -1.870394e+04 -1.906425e+04 -2.266558e+04 -1.049370e+04 -1.159387e+04 -1.480084e+04 2.683335e+03 9.540322e+02 -6.661960e+03 -2.324026e+03 -5.432855e+03 -1.485426e+04 -9.187976e+02 -6.328378e+03 -4.332296e+03 -1.641598e+03 -1.231219e+04 8.747784e+01 -4.571435e+03 -1.476268e+04 -5.127023e+03 -1.555562e+03 -5.618985e+03 -6.807535e+03 -2.506639e+04 -1.346172e+04 -1.143768e+04 3.226035e+04 6.420735e+04 -5.207707e+03 -1.642142e+04 -2.134187e+04 -1.344062e+04 -3.222649e+04 -2.030331e+04 -2.137047e+04 1.065674e+04 1.332388e+04 8.278195e+02 1.005563e+03 -6.091926e+03 -1.570662e+01 -1.246418e+04 -1.568398e+04 -1.692359e+05 -3.379668e+05 -3.184020e+05 -2.704374e+05 -2.704374e+05 -2.318333e+05 -2.192373e+05 -2.145217e+05 -2.109026e+05 -2.109026e+05 -2.059691e+05 -1.927578e+05 -1.879033e+05 -1.840891e+05 -1.827676e+05 -1.768745e+05 -1.749127e+05 -1.704590e+05 -1.591426e+05 -1.553153e+05 -1.506308e+05 -1.438254e+05 -1.407866e+05 -1.375778e+05 -1.316316e+05 -1.316316e+05 -1.268560e+05 -1.203440e+05 -1.184985e+05 -1.146448e+05 -1.116821e+05 -1.078322e+05 -1.025839e+05 -9.735552e+04 -9.592294e+04 -9.366151e+04 -8.855964e+04 -8.675061e+04 -7.990497e+04 -7.843672e+04 -7.575833e+04 -7.272611e+04 -7.115158e+04 -6.511842e+04 -6.416105e+04 -6.000388e+04 -5.713688e+04 -5.511136e+04 -5.057547e+04 -4.957316e+04 -4.418488e+04 -4.418488e+04 -4.148494e+04 -3.756109e+04 -3.242011e+04 -3.242011e+04 -2.827890e+04 -2.461423e+04 -2.461423e+04 -2.123985e+04 -1.802699e+04 -1.600413e+04 -1.218341e+04 -1.218341e+04 -7.731784e+03 -7.731784e+03 -5.158350e+03 -2.837804e+03 3.460856e+02 2.373216e+03 4.082613e+03 8.249955e+03 8.249955e+03 1.122358e+04 1.328907e+04 1.525781e+04 1.830707e+04 1.830707e+04 -4.676554e+03 -4.676554e+03 -4.676554e+03 -1.346812e+03 6.051907e+04 6.051907e+04 6.051907e+04 2.569840e+04 2.569840e+04 2.569840e+04 3.545662e+04 -3.662473e+04 -3.662473e+04 -3.662473e+04 -4.418122e+04 -8.505784e+04 -8.505784e+04 -8.505784e+04 -9.425571e+04 -1.989413e+05 -1.989413e+05 -1.989413e+05 -1.969291e+05 -1.925030e+05 -1.749129e+05 -1.749129e+05 -1.749129e+05 -1.713113e+05 -3.117594e+02 -3.117594e+02 -3.117594e+02 -6.873251e+04 -6.873251e+04 -6.873251e+04 -6.521505e+04 -6.671510e+04 -2.749901e+05 -2.749901e+05 -2.749901e+05 -3.232209e+05 -2.629724e+04 -2.629724e+04 -2.629724e+04 -1.832002e+04 -1.832002e+04 -9.124581e+04 -9.124581e+04 -9.124581e+04 -9.628332e+04 -1.238432e+05 -9.849557e+04 -9.849557e+04 -9.849557e+04 -1.078250e+05 -1.722952e+05 -1.290543e+05 -1.290543e+05 -1.290543e+05 -1.373634e+05 -1.542427e+05 -1.542427e+05 -1.542427e+05 -1.762443e+04 -1.762443e+04 -5.793942e+04 -5.793942e+04 -1.217904e+05 -1.217904e+05 -1.217904e+05 -4.194979e+04 -1.577728e+05 -1.577728e+05 -1.577728e+05 -4.781384e+04 -2.910209e+05 -2.910209e+05 -4.689294e+05 -4.689294e+05 -2.877175e+05 -2.877175e+05 -2.877175e+05 -2.348179e+05 -2.348179e+05 -4.537032e+05 -4.537032e+05 -4.537032e+05 -4.195275e+05 -4.195275e+05 -1.442933e+04 -2.480099e+05 -2.480099e+05 -2.480099e+05 -2.428348e+05 -5.635247e+04 -5.635247e+04 -5.635247e+04 -5.939468e+04 -5.939468e+04 -1.030139e+05 -1.030139e+05 -1.030139e+05 -9.130957e+04 -9.130957e+04 -1.363387e+05 -1.363387e+05 -1.363387e+05 -1.399000e+05 -1.399000e+05 -1.605241e+05 -1.605241e+05 -1.605241e+05 -1.502486e+05 -1.502486e+05 -1.770140e+04 -1.770140e+04 -1.770140e+04 -1.608188e+04 -2.134400e+04 -2.134400e+04 -2.134400e+04 -2.917939e+04 -1.102125e+05 -1.102125e+05 -1.102125e+05 -1.194132e+05 -1.194132e+05 3.165937e+04 3.165937e+04 3.165937e+04 -3.007135e+04 -3.007135e+04 -3.007135e+04 -2.581319e+04 -2.581319e+04 1.497025e+04 1.497025e+04 1.497025e+04 3.182050e+04 3.182050e+04 -4.793389e+04 -4.793389e+04 -4.793389e+04 -3.691771e+04 -1.107656e+05 -1.107656e+05 -1.814312e+05 -1.814312e+05 -1.814312e+05 -5.394388e+04 -5.394388e+04 -4.213654e+04 -4.213654e+04 -3.532678e+04 -3.532678e+04 -3.532678e+04 -3.540578e+04 -3.087672e+05 -3.087672e+05 -3.087672e+05 -2.693567e+05 -3.411801e+04 -3.411801e+04 -2.913243e+05 -2.913243e+05 -2.913243e+05 -9.947276e+04 -9.947276e+04 -9.947276e+04 -1.098777e+05 -1.098777e+05 -4.590817e+05 -4.590817e+05 -4.590817e+05 -5.084798e+05 -5.084798e+05 -1.266449e+05 -1.266449e+05 -1.105525e+05 -1.339323e+05 -1.339323e+05 -1.339323e+05 -5.059643e+04 -5.059643e+04 -3.607207e+04 -1.115553e+05 -1.115553e+05 -1.115553e+05 -4.116455e+04 -9.456965e+04 -5.507211e+04 -1.343075e+05 -1.343075e+05 -1.343075e+05 -1.629720e+05 -1.629720e+05 -1.629720e+05 -1.000608e+05 -1.000608e+05 -1.000608e+05 -3.506808e+05 -3.506808e+05 -3.506808e+05 -2.806196e+05 -2.806196e+05 -1.9126