<?xml version="1.0"?>
 <VTKFile type="UnstructuredGrid" version="1.0" byte_order="LittleEndian" header_type="UInt64">
  <UnstructuredGrid>
    <FieldData>
     <DataArray type="Float64" Name="TimeValue" NumberOfTuples="1" format="ascii">
9.72353e-06
     </DataArray>
    </FieldData>
   <Piece NumberOfPoints="3548" NumberOfCells="3379">
    <PointData>
     <DataArray type="Float64" Name="pointP" format="ascii">
1.012492e+05 1.012624e+05 1.012816e+05 1.013051e+05 1.012977e+05 1.012573e+05 1.012447e+05 1.012736e+05 1.013508e+05 1.012844e+05 1.013072e+05 1.012980e+05 1.012682e+05 1.013164e+05 1.012942e+05 1.012818e+05 1.013136e+05 1.012558e+05 1.012646e+05 1.012803e+05 1.012741e+05 1.012005e+05 1.012487e+05 1.013023e+05 1.012265e+05 1.012254e+05 1.011985e+05 1.012660e+05 1.012253e+05 1.012370e+05 1.012468e+05 1.012313e+05 1.012337e+05 1.012536e+05 1.013031e+05 1.012528e+05 1.012405e+05 1.013033e+05 1.012081e+05 1.012446e+05 1.012814e+05 1.013013e+05 1.012941e+05 1.012279e+05 1.012743e+05 1.012247e+05 1.012845e+05 1.013200e+05 1.011601e+05 1.012600e+05 1.012053e+05 1.012731e+05 1.012608e+05 1.012118e+05 1.011851e+05 1.010937e+05 1.012636e+05 1.011834e+05 1.013190e+05 1.012253e+05 1.012039e+05 1.012129e+05 1.012062e+05 1.012788e+05 1.011886e+05 1.012604e+05 1.012277e+05 1.012507e+05 1.012765e+05 1.012739e+05 1.012285e+05 1.012226e+05 1.012116e+05 1.011999e+05 1.013254e+05 1.013003e+05 1.012328e+05 1.013887e+05 1.013374e+05 1.013210e+05 1.012776e+05 1.012776e+05 1.013700e+05 1.013018e+05 1.014092e+05 1.014208e+05 1.014208e+05 1.012949e+05 1.013071e+05 1.012480e+05 1.012091e+05 1.013485e+05 1.013218e+05 1.013089e+05 1.012985e+05 1.012797e+05 1.012723e+05 1.012748e+05 1.012715e+05 1.012963e+05 1.013016e+05 1.012865e+05 1.012865e+05 1.013143e+05 1.012973e+05 1.013143e+05 1.013052e+05 1.013199e+05 1.013199e+05 1.013025e+05 1.013050e+05 1.013024e+05 1.013273e+05 1.013068e+05 1.013484e+05 1.012946e+05 1.012988e+05 1.013038e+05 1.013138e+05 1.013074e+05 1.013032e+05 1.013080e+05 1.013040e+05 1.013108e+05 1.013433e+05 1.013052e+05 1.013124e+05 1.013172e+05 1.013172e+05 1.013134e+05 1.013143e+05 1.013218e+05 1.013218e+05 1.013076e+05 1.013145e+05 1.013145e+05 1.013145e+05 1.013126e+05 1.013165e+05 1.013209e+05 1.013209e+05 1.013108e+05 1.013108e+05 1.013165e+05 1.013187e+05 1.013185e+05 1.013200e+05 1.013249e+05 1.013143e+05 1.013143e+05 1.013178e+05 1.013180e+05 1.013185e+05 1.013180e+05 1.013180e+05 1.013158e+05 1.013158e+05 1.013158e+05 1.013168e+05 1.013219e+05 1.013219e+05 1.013219e+05 1.013181e+05 1.013181e+05 1.013181e+05 1.013205e+05 1.013147e+05 1.013147e+05 1.013147e+05 1.013110e+05 1.013106e+05 1.013106e+05 1.013106e+05 1.013063e+05 1.012968e+05 1.012968e+05 1.012968e+05 1.013090e+05 1.012877e+05 1.013071e+05 1.013071e+05 1.013071e+05 1.012925e+05 1.013104e+05 1.013104e+05 1.013104e+05 1.012971e+05 1.012971e+05 1.012971e+05 1.013208e+05 1.012938e+05 1.013429e+05 1.013429e+05 1.013429e+05 1.012376e+05 1.013127e+05 1.013127e+05 1.013127e+05 1.013252e+05 1.013252e+05 1.010834e+05 1.010834e+05 1.010834e+05 1.014157e+05 1.013147e+05 1.010742e+05 1.010742e+05 1.010742e+05 1.014918e+05 1.011972e+05 1.012387e+05 1.012387e+05 1.012387e+05 1.013554e+05 1.011198e+05 1.011198e+05 1.011198e+05 1.013945e+05 1.013945e+05 1.014207e+05 1.014207e+05 1.012524e+05 1.012524e+05 1.012524e+05 1.014171e+05 1.013977e+05 1.013977e+05 1.013977e+05 1.014580e+05 1.012258e+05 1.012258e+05 1.012384e+05 1.012384e+05 1.012553e+05 1.012553e+05 1.012553e+05 1.012324e+05 1.012324e+05 1.013088e+05 1.013088e+05 1.013088e+05 1.013190e+05 1.013190e+05 1.012213e+05 1.013440e+05 1.013440e+05 1.013440e+05 1.013245e+05 1.013367e+05 1.013367e+05 1.013367e+05 1.013147e+05 1.013147e+05 1.012974e+05 1.012974e+05 1.012974e+05 1.012983e+05 1.012983e+05 1.012900e+05 1.012900e+05 1.012900e+05 1.012935e+05 1.012935e+05 1.012964e+05 1.012964e+05 1.012964e+05 1.012983e+05 1.012983e+05 1.013238e+05 1.013238e+05 1.013238e+05 1.013100e+05 1.013113e+05 1.013113e+05 1.013113e+05 1.013193e+05 1.013121e+05 1.013121e+05 1.013121e+05 1.013094e+05 1.013094e+05 1.013164e+05 1.013164e+05 1.013164e+05 1.013142e+05 1.013142e+05 1.013142e+05 1.013073e+05 1.013073e+05 1.013230e+05 1.013230e+05 1.013230e+05 1.013189e+05 1.013189e+05 1.013143e+05 1.013143e+05 1.013143e+05 1.013133e+05 1.012959e+05 1.012959e+05 1.013061e+05 1.013061e+05 1.013061e+05 1.012982e+05 1.012982e+05 1.012985e+05 1.012985e+05 1.013119e+05 1.013119e+05 1.013119e+05 1.013119e+05 1.012656e+05 1.012656e+05 1.012656e+05 1.013155e+05 1.013253e+05 1.013253e+05 1.012738e+05 1.012738e+05 1.012738e+05 1.012690e+05 1.012690e+05 1.012690e+05 1.012855e+05 1.012855e+05 1.012227e+05 1.012227e+05 1.012227e+05 1.013573e+05 1.013573e+05 1.013639e+05 1.013639e+05 1.012710e+05 1.011266e+05 1.011266e+05 1.011266e+05 1.014396e+05 1.014396e+05 1.012253e+05 1.010972e+05 1.010972e+05 1.010972e+05 1.015276e+05 1.014650e+05 1.014917e+05 1.012937e+05 1.012937e+05 1.012937e+05 1.011715e+05 1.011715e+05 1.011715e+05 1.012429e+05 1.012429e+05 1.012429e+05 1.013006e+05 1.013006e+05 1.013006e+05 1.012955e+05 1.012955e+05 1.013139e+05 1.013139e+05 1.013139e+05 1.012968e+05 1.012968e+05 1.012889e+05 1.012889e+05 1.013042e+05 1.013042e+05 1.012888e+05 1.012888e+05 1.012888e+05 1.013118e+05 1.013118e+05 1.013099e+05 1.013099e+05 1.013149e+05 1.013149e+05 1.013235e+05 1.013229e+05 1.013235e+05 1.013235e+05 1.013103e+05 1.013101e+05 1.013101e+05 1.013015e+05 1.013015e+05 1.013015e+05 1.012818e+05 1.012818e+05 1.012818e+05 1.013140e+05 1.012115e+05 1.012115e+05 1.011505e+05 1.011505e+05 1.013771e+05 1.011506e+05 1.014167e+05 1.012129e+05 1.014724e+05 1.014724e+05 1.011266e+05 1.011266e+05 1.013119e+05 1.012468e+05 1.013962e+05 1.013962e+05 1.013015e+05 1.013015e+05 1.013015e+05 1.014398e+05 1.014643e+05 1.012977e+05 1.013817e+05 1.013817e+05 1.013031e+05 1.011996e+05 1.011996e+05 1.012213e+05 1.012796e+05 1.012796e+05 1.013955e+05 1.014093e+05 1.014093e+05 1.014093e+05 1.014581e+05 1.011440e+05 1.011440e+05 1.011933e+05 1.013304e+05 1.013304e+05 1.013304e+05 1.012366e+05 1.012366e+05 1.012521e+05 1.013796e+05 1.013796e+05 1.014662e+05 1.012736e+05 1.014197e+05 1.015108e+05 1.015108e+05 1.015208e+05 1.010619e+05 1.010947e+05 1.010947e+05 1.009627e+05 1.012636e+05 1.009603e+05 1.009603e+05 1.014752e+05 1.012573e+05 1.014539e+05 1.013899e+05 1.011243e+05 1.013497e+05 1.013719e+05 1.013719e+05 1.014172e+05 1.011601e+05 1.013138e+05 1.012760e+05 1.012760e+05 1.012760e+05 1.012619e+05 1.012619e+05 1.013349e+05 1.013349e+05 1.013699e+05 1.013650e+05 1.012764e+05 1.012284e+05 1.015104e+05 1.015104e+05 1.013842e+05 1.012811e+05 1.012290e+05 1.013156e+05 1.013341e+05 1.013976e+05 1.011057e+05 1.012143e+05 1.012237e+05 1.012237e+05 1.013300e+05 1.011717e+05 1.013125e+05 1.012865e+05 1.013903e+05 1.013248e+05 1.013248e+05 1.012827e+05 1.013569e+05 1.012709e+05 1.012709e+05 1.014363e+05 1.012894e+05 1.012894e+05 1.012894e+05 1.012705e+05 1.013033e+05 1.014126e+05 1.013014e+05 1.013014e+05 1.013014e+05 1.012808e+05 1.014689e+05 1.013230e+05 1.013088e+05 1.013088e+05 1.012631e+05 1.013162e+05 1.012296e+05 1.013827e+05 1.013802e+05 1.013630e+05 1.013091e+05 1.013159e+05 1.013159e+05 1.012622e+05 1.012622e+05 1.012902e+05 1.012902e+05 1.012957e+05 1.012957e+05 1.012786e+05 1.013086e+05 1.013053e+05 1.013053e+05 1.013254e+05 1.013254e+05 1.012613e+05 1.012489e+05 1.012514e+05 1.013131e+05 1.012969e+05 1.012851e+05 1.012481e+05 1.012481e+05 1.013181e+05 1.013479e+05 1.013307e+05 1.012912e+05 1.012912e+05 1.013062e+05 1.012846e+05 1.013196e+05 1.012647e+05 1.012500e+05 1.013344e+05 1.011987e+05 1.012541e+05 1.012541e+05 1.013125e+05 1.012898e+05 1.013043e+05 1.012448e+05 1.013118e+05 1.012920e+05 1.012920e+05 1.012920e+05 1.013046e+05 1.013046e+05 1.012937e+05 1.013221e+05 1.012847e+05 1.013010e+05 1.013902e+05 1.012769e+05 1.013012e+05 1.013120e+05 1.013191e+05 1.013202e+05 1.012949e+05 1.012692e+05 1.012692e+05 1.012692e+05 1.012954e+05 1.013255e+05 1.012905e+05 1.012922e+05 1.013124e+05 1.013124e+05 1.013109e+05 1.013080e+05 1.013080e+05 1.013002e+05 1.013002e+05 1.013255e+05 1.012920e+05 1.013216e+05 1.013216e+05 1.012612e+05 1.012612e+05 1.013183e+05 1.013697e+05 1.013697e+05 1.012544e+05 1.012657e+05 1.012657e+05 1.012758e+05 1.012758e+05 1.012758e+05 1.012876e+05 1.012817e+05 1.013056e+05 1.013179e+05 1.013179e+05 1.012945e+05 1.013110e+05 1.012639e+05 1.012832e+05 1.012951e+05 1.012646e+05 1.012962e+05 1.012900e+05 1.013299e+05 1.013299e+05 1.012893e+05 1.012893e+05 1.013176e+05 1.012782e+05 1.012834e+05 1.012834e+05 1.013344e+05 1.012881e+05 1.013110e+05 1.012732e+05 1.013202e+05 1.013202e+05 1.012966e+05 1.012966e+05 1.012966e+05 1.012932e+05 1.012902e+05 1.012902e+05 1.013156e+05 1.013156e+05 1.013152e+05 1.012957e+05 1.012957e+05 1.012957e+05 1.013062e+05 1.013226e+05 1.013218e+05 1.013152e+05 1.013277e+05 1.013277e+05 1.013008e+05 1.013008e+05 1.013288e+05 1.013106e+05 1.012930e+05 1.012892e+05 1.012892e+05 1.013170e+05 1.013140e+05 1.013140e+05 1.012939e+05 1.013034e+05 1.013114e+05 1.013043e+05 1.013043e+05 1.013043e+05 1.013066e+05 1.013072e+05 1.013203e+05 1.013251e+05 1.013251e+05 1.013042e+05 1.013042e+05 1.013042e+05 1.012977e+05 1.013121e+05 1.012910e+05 1.012910e+05 1.013108e+05 1.012968e+05 1.013067e+05 1.013067e+05 1.013067e+05 1.013048e+05 1.013060e+05 1.013064e+05 1.013121e+05 1.013076e+05 1.013162e+05 1.013080e+05 1.012935e+05 1.013168e+05 1.012942e+05 1.012942e+05 1.012918e+05 1.012918e+05 1.013017e+05 1.013071e+05 1.013107e+05 1.013107e+05 1.013107e+05 1.012995e+05 1.013128e+05 1.012979e+05 1.013186e+05 1.013182e+05 1.013192e+05 1.013073e+05 1.012998e+05 1.012988e+05 1.013037e+05 1.012999e+05 1.012999e+05 1.013158e+05 1.013158e+05 1.013158e+05 1.013215e+05 1.013025e+05 1.013091e+05 1.013025e+05 1.013190e+05 1.013160e+05 1.013066e+05 1.013193e+05 1.013199e+05 1.013008e+05 1.013008e+05 1.013008e+05 1.013049e+05 1.013090e+05 1.013094e+05 1.013094e+05 1.013075e+05 1.013075e+05 1.013181e+05 1.013145e+05 1.013104e+05 1.013165e+05 1.013100e+05 1.013215e+05 1.013164e+05 1.013164e+05 1.013178e+05 1.013202e+05 1.013202e+05 1.013153e+05 1.013153e+05 1.013191e+05 1.013191e+05 1.013151e+05 1.013182e+05 1.013182e+05 1.013140e+05 1.013204e+05 1.013226e+05 1.013227e+05 1.013181e+05 1.013181e+05 1.013181e+05 1.013041e+05 1.013041e+05 1.013041e+05 1.012790e+05 1.012790e+05 1.013165e+05 1.013165e+05 1.013165e+05 1.013170e+05 1.012666e+05 1.012666e+05 1.012382e+05 1.012382e+05 1.012315e+05 1.012315e+05 1.012315e+05 1.013156e+05 1.013156e+05 1.013156e+05 1.013165e+05 1.013075e+05 1.013075e+05 1.013075e+05 1.013145e+05 1.013177e+05 1.013177e+05 1.013074e+05 1.013074e+05 1.013074e+05 1.013099e+05 1.013099e+05 1.013099e+05 1.013450e+05 1.013450e+05 1.013450e+05 1.013084e+05 1.013084e+05 1.013084e+05 1.012794e+05 1.013135e+05 1.013135e+05 1.013135e+05 1.013073e+05 1.013073e+05 1.013073e+05 1.013112e+05 1.013112e+05 1.013112e+05 1.013141e+05 1.013141e+05 1.013141e+05 1.013120e+05 1.013120e+05 1.013181e+05 1.013181e+05 1.013168e+05 1.013161e+05 1.013197e+05 1.013197e+05 1.013197e+05 1.013138e+05 1.013138e+05 1.013040e+05 1.013040e+05 1.013040e+05 1.013051e+05 1.013051e+05 1.013051e+05 1.013135e+05 1.013135e+05 1.013135e+05 1.012980e+05 1.013038e+05 1.013038e+05 1.013038e+05 1.013108e+05 1.013016e+05 1.013016e+05 1.013016e+05 1.013231e+05 1.013231e+05 1.013231e+05 1.012939e+05 1.013170e+05 1.013100e+05 1.013100e+05 1.013100e+05 1.013066e+05 1.013066e+05 1.013093e+05 1.013093e+05 1.013189e+05 1.013177e+05 1.013177e+05 1.013152e+05 1.013152e+05 1.013152e+05 1.013093e+05 1.013093e+05 1.013121e+05 1.013121e+05 1.013121e+05 1.013068e+05 1.013105e+05 1.013105e+05 1.013105e+05 1.013161e+05 1.013157e+05 1.013224e+05 1.013224e+05 1.013187e+05 1.013187e+05 1.013109e+05 1.013109e+05 1.013109e+05 1.013106e+05 1.013130e+05 1.013531e+05 1.013531e+05 1.013052e+05 1.012138e+05 1.013067e+05 1.013067e+05 1.013067e+05 1.013209e+05 1.013455e+05 1.013455e+05 1.012877e+05 1.013013e+05 1.013013e+05 1.013187e+05 1.013183e+05 1.013183e+05 1.013178e+05 1.013178e+05 1.013178e+05 1.012978e+05 1.012978e+05 1.012978e+05 1.013203e+05 1.013068e+05 1.013123e+05 1.012879e+05 1.012879e+05 1.012879e+05 1.012838e+05 1.013195e+05 1.013195e+05 1.013210e+05 1.013210e+05 1.013030e+05 1.013103e+05 1.013103e+05 1.012911e+05 1.012911e+05 1.012992e+05 1.012992e+05 1.012992e+05 1.013207e+05 1.013207e+05 1.013173e+05 1.013173e+05 1.013122e+05 1.013036e+05 1.013036e+05 1.013036e+05 1.013119e+05 1.013119e+05 1.013089e+05 1.013089e+05 1.013172e+05 1.013172e+05 1.013134e+05 1.013134e+05 1.013117e+05 1.012994e+05 1.012994e+05 1.013164e+05 1.013164e+05 1.013018e+05 1.013018e+05 1.013018e+05 1.013062e+05 1.013062e+05 1.013062e+05 1.013062e+05 1.013009e+05 1.013017e+05 1.013062e+05 1.013062e+05 1.013112e+05 1.012952e+05 1.013107e+05 1.013107e+05 1.013187e+05 1.013187e+05 1.013187e+05 1.013112e+05 1.013061e+05 1.013061e+05 1.013144e+05 1.013144e+05 1.013053e+05 1.013166e+05 1.013114e+05 1.013114e+05 1.013163e+05 1.013163e+05 1.013163e+05 1.013080e+05 1.013080e+05 1.013139e+05 1.013138e+05 1.013044e+05 1.013044e+05 1.013182e+05 1.013064e+05 1.013064e+05 1.013190e+05 1.013142e+05 1.013142e+05 1.013069e+05 1.013115e+05 1.013115e+05 1.013134e+05 1.013134e+05 1.013193e+05 1.013082e+05 1.013082e+05 1.013089e+05 1.013089e+05 1.013057e+05 1.013190e+05 1.013078e+05 1.013078e+05 1.013110e+05 1.013223e+05 1.012984e+05 1.012984e+05 1.013099e+05 1.013055e+05 1.013155e+05 1.013155e+05 1.013155e+05 1.013157e+05 1.013157e+05 1.013157e+05 1.013089e+05 1.013089e+05 1.013155e+05 1.013155e+05 1.013155e+05 1.013066e+05 1.013147e+05 1.013128e+05 1.013146e+05 1.013171e+05 1.013171e+05 1.013171e+05 1.013110e+05 1.013116e+05 1.013116e+05 1.013144e+05 1.013144e+05 1.013144e+05 1.013186e+05 1.013143e+05 1.013119e+05 1.013119e+05 1.013148e+05 1.013148e+05 1.013148e+05 1.013181e+05 1.013160e+05 1.013070e+05 1.013070e+05 1.013070e+05 1.013071e+05 1.013071e+05 1.013060e+05 1.013185e+05 1.013136e+05 1.013138e+05 1.013141e+05 1.013141e+05 1.013149e+05 1.013142e+05 1.013142e+05 1.013176e+05 1.013176e+05 1.013176e+05 1.013136e+05 1.013124e+05 1.013102e+05 1.013150e+05 1.013158e+05 1.013148e+05 1.013122e+05 1.013181e+05 1.013181e+05 1.013185e+05 1.013172e+05 1.013172e+05 1.013137e+05 1.013176e+05 1.013176e+05 1.013176e+05 1.013169e+05 1.013169e+05 1.013108e+05 1.013108e+05 1.013124e+05 1.013149e+05 1.013149e+05 1.013173e+05 1.013122e+05 1.013136e+05 1.013176e+05 1.013186e+05 1.013162e+05 1.013151e+05 1.013186e+05 1.013202e+05 1.012782e+05 1.012782e+05 1.012945e+05 1.012945e+05 1.014053e+05 1.014053e+05 1.013396e+05 1.013379e+05 1.012374e+05 1.013113e+05 1.013450e+05 1.013193e+05 1.013193e+05 1.013148e+05 1.013107e+05 1.013085e+05 1.013174e+05 1.013174e+05 1.012892e+05 1.013061e+05 1.012755e+05 1.013024e+05 1.013024e+05 1.013024e+05 1.013367e+05 1.013367e+05 1.013367e+05 1.012976e+05 1.013305e+05 1.013305e+05 1.012890e+05 1.012890e+05 1.013222e+05 1.013098e+05 1.012898e+05 1.013163e+05 1.013201e+05 1.013215e+05 1.013225e+05 1.013149e+05 1.013149e+05 1.013159e+05 1.012982e+05 1.012993e+05 1.013050e+05 1.013220e+05 1.013220e+05 1.013568e+05 1.012857e+05 1.013067e+05 1.012984e+05 1.012984e+05 1.013048e+05 1.013164e+05 1.013165e+05 1.013186e+05 1.013186e+05 1.013186e+05 1.013141e+05 1.013173e+05 1.013139e+05 1.013139e+05 1.013027e+05 1.013043e+05 1.013043e+05 1.012831e+05 1.013010e+05 1.013392e+05 1.013392e+05 1.013182e+05 1.013182e+05 1.013182e+05 1.013170e+05 1.013170e+05 1.013181e+05 1.013326e+05 1.013232e+05 1.013117e+05 1.013138e+05 1.013187e+05 1.012749e+05 1.013034e+05 1.013144e+05 1.013087e+05 1.013050e+05 1.013141e+05 1.013082e+05 1.013151e+05 1.013151e+05 1.013161e+05 1.013167e+05 1.013150e+05 1.013171e+05 1.013153e+05 1.013178e+05 1.013163e+05 1.013163e+05 1.013221e+05 1.013179e+05 1.013143e+05 1.013123e+05 1.013123e+05 1.013170e+05 1.013063e+05 1.013186e+05 1.013103e+05 1.013168e+05 1.013131e+05 1.013193e+05 1.013125e+05 1.013177e+05 1.013177e+05 1.013177e+05 1.013180e+05 1.013176e+05 1.013176e+05 1.013160e+05 1.013160e+05 1.013178e+05 1.013147e+05 1.013147e+05 1.013177e+05 1.013172e+05 1.013149e+05 1.013151e+05 1.013173e+05 1.013169e+05 1.013182e+05 1.013182e+05 1.013178e+05 1.013226e+05 1.013169e+05 1.013169e+05 1.013171e+05 1.013171e+05 1.013151e+05 1.013190e+05 1.013179e+05 1.013176e+05 1.013176e+05 1.013794e+05 1.013794e+05 1.012045e+05 1.012393e+05 1.012546e+05 1.012043e+05 1.013019e+05 1.012118e+05 1.012946e+05 1.012946e+05 1.012946e+05 1.013051e+05 1.012496e+05 1.012496e+05 1.012496e+05 1.013124e+05 1.014820e+05 1.014820e+05 1.012083e+05 1.012083e+05 1.015456e+05 1.014429e+05 1.014429e+05 1.014429e+05 1.014408e+05 1.013124e+05 1.013124e+05 1.013124e+05 1.012754e+05 1.013123e+05 1.012870e+05 1.011504e+05 1.011504e+05 1.012565e+05 1.011190e+05 1.011190e+05 1.011190e+05 1.012557e+05 1.012557e+05 1.012557e+05 1.012830e+05 1.012830e+05 1.012434e+05 1.013410e+05 1.014370e+05 1.013414e+05 1.013414e+05 1.011855e+05 1.013374e+05 1.012814e+05 1.012814e+05 1.012814e+05 1.012053e+05 1.012053e+05 1.012434e+05 1.012631e+05 1.012804e+05 1.011925e+05 1.013218e+05 1.013218e+05 1.012681e+05 1.013108e+05 1.013021e+05 1.013092e+05 1.013252e+05 1.012879e+05 1.012879e+05 1.013002e+05 1.013008e+05 1.012995e+05 1.012995e+05 1.012995e+05 1.013009e+05 1.013009e+05 1.013070e+05 1.013085e+05 1.013085e+05 1.013167e+05 1.013112e+05 1.013112e+05 1.013112e+05 1.013124e+05 1.013124e+05 1.013010e+05 1.013010e+05 1.013010e+05 1.012091e+05 1.012091e+05 1.013112e+05 1.013177e+05 1.013177e+05 1.013177e+05 1.013049e+05 1.013049e+05 1.013049e+05 1.013075e+05 1.013081e+05 1.013165e+05 1.013165e+05 1.013165e+05 1.013019e+05 1.013019e+05 1.013019e+05 1.013115e+05 1.013115e+05 1.013115e+05 1.013053e+05 1.013053e+05 1.012910e+05 1.012910e+05 1.012910e+05 1.012892e+05 1.012892e+05 1.012964e+05 1.012964e+05 1.012964e+05 1.013051e+05 1.013051e+05 1.012944e+05 1.012944e+05 1.012944e+05 1.013161e+05 1.013161e+05 1.013161e+05 1.013071e+05 1.013071e+05 1.013071e+05 1.012996e+05 1.012996e+05 1.013139e+05 1.013139e+05 1.013139e+05 1.013148e+05 1.013148e+05 1.013210e+05 1.013166e+05 1.013166e+05 1.013166e+05 1.013175e+05 1.013131e+05 1.013131e+05 1.013131e+05 1.013133e+05 1.013160e+05 1.013160e+05 1.013160e+05 1.013062e+05 1.013067e+05 1.013055e+05 1.013055e+05 1.013055e+05 1.013120e+05 1.013158e+05 1.013158e+05 1.013158e+05 1.013018e+05 1.013018e+05 1.013018e+05 1.013105e+05 1.013105e+05 1.013061e+05 1.013061e+05 1.013061e+05 1.013085e+05 1.013031e+05 1.013031e+05 1.013019e+05 1.013019e+05 1.012797e+05 1.013163e+05 1.013136e+05 1.013250e+05 1.012642e+05 1.013147e+05 1.013008e+05 1.012980e+05 1.012980e+05 1.013142e+05 1.013142e+05 1.013142e+05 1.013070e+05 1.013070e+05 1.013184e+05 1.013184e+05 1.013184e+05 1.012848e+05 1.012848e+05 1.012848e+05 1.013108e+05 1.013108e+05 1.013143e+05 1.013143e+05 1.013080e+05 1.013080e+05 1.013080e+05 1.013091e+05 1.013091e+05 1.013091e+05 1.013149e+05 1.013149e+05 1.013149e+05 1.012995e+05 1.013076e+05 1.013076e+05 1.013025e+05 1.013025e+05 1.013068e+05 1.013068e+05 1.012791e+05 1.012791e+05 1.013092e+05 1.012869e+05 1.012869e+05 1.012869e+05 1.012961e+05 1.013195e+05 1.013167e+05 1.012876e+05 1.013062e+05 1.013062e+05 1.013062e+05 1.013009e+05 1.013009e+05 1.012740e+05 1.012740e+05 1.012950e+05 1.012950e+05 1.013284e+05 1.013284e+05 1.013006e+05 1.013006e+05 1.013074e+05 1.013062e+05 1.013062e+05 1.013188e+05 1.013188e+05 1.013188e+05 1.013003e+05 1.013135e+05 1.013223e+05 1.013190e+05 1.013190e+05 1.013190e+05 1.013137e+05 1.013137e+05 1.013137e+05 1.013005e+05 1.013133e+05 1.013133e+05 1.013133e+05 1.013117e+05 1.013117e+05 1.013117e+05 1.013093e+05 1.013093e+05 1.012997e+05 1.013064e+05 1.013168e+05 1.013168e+05 1.013039e+05 1.013039e+05 1.013204e+05 1.013078e+05 1.013004e+05 1.013048e+05 1.013088e+05 1.013088e+05 1.013070e+05 1.013113e+05 1.013168e+05 1.013168e+05 1.012953e+05 1.013077e+05 1.013138e+05 1.013138e+05 1.013135e+05 1.013154e+05 1.013154e+05 1.013060e+05 1.013099e+05 1.013099e+05 1.013099e+05 1.013102e+05 1.013130e+05 1.013107e+05 1.013107e+05 1.013107e+05 1.013158e+05 1.013158e+05 1.013035e+05 1.012943e+05 1.013100e+05 1.013100e+05 1.013034e+05 1.013198e+05 1.013111e+05 1.013111e+05 1.013111e+05 1.013059e+05 1.013118e+05 1.013159e+05 1.013159e+05 1.013159e+05 1.013125e+05 1.013162e+05 1.013162e+05 1.013145e+05 1.013145e+05 1.013087e+05 1.013087e+05 1.013056e+05 1.013025e+05 1.013087e+05 1.013087e+05 1.013087e+05 1.013135e+05 1.013135e+05 1.013117e+05 1.013117e+05 1.013117e+05 1.013077e+05 1.013168e+05 1.013152e+05 1.013152e+05 1.013103e+05 1.013103e+05 1.013122e+05 1.013144e+05 1.013133e+05 1.013133e+05 1.013133e+05 1.013134e+05 1.013134e+05 1.013172e+05 1.013172e+05 1.013172e+05 1.013139e+05 1.013139e+05 1.013096e+05 1.013136e+05 1.013136e+05 1.013178e+05 1.013178e+05 1.013176e+05 1.013176e+05 1.013145e+05 1.013103e+05 1.013103e+05 1.013164e+05 1.013164e+05 1.013108e+05 1.013168e+05 1.013147e+05 1.013147e+05 1.013114e+05 1.013143e+05 1.013143e+05 1.013124e+05 1.013124e+05 1.013124e+05 1.013133e+05 1.013162e+05 1.013162e+05 1.013162e+05 1.013172e+05 1.013143e+05 1.013066e+05 1.013066e+05 1.013066e+05 1.013096e+05 1.013137e+05 1.013142e+05 1.013141e+05 1.013135e+05 1.013136e+05 1.013076e+05 1.013170e+05 1.013170e+05 1.013167e+05 1.013186e+05 1.013186e+05 1.013186e+05 1.013162e+05 1.013155e+05 1.013122e+05 1.013156e+05 1.013157e+05 1.013161e+05 1.013127e+05 1.013170e+05 1.013170e+05 1.013156e+05 1.013128e+05 1.013190e+05 1.013189e+05 1.013139e+05 1.013139e+05 1.013142e+05 1.013178e+05 1.013190e+05 1.013177e+05 1.013177e+05 1.013177e+05 1.013177e+05 1.013134e+05 1.013157e+05 1.013191e+05 1.013188e+05 1.013188e+05 1.013188e+05 1.013177e+05 1.013177e+05 1.013191e+05 1.013162e+05 1.013162e+05 1.013189e+05 1.013159e+05 1.013159e+05 1.013152e+05 1.013161e+05 1.013192e+05 1.013192e+05 1.013192e+05 1.013173e+05 1.013179e+05 1.013179e+05 1.013191e+05 1.013167e+05 1.013167e+05 1.013195e+05 1.013192e+05 1.013190e+05 1.013182e+05 1.013182e+05 1.013183e+05 1.013199e+05 1.013199e+05 1.013199e+05 1.013203e+05 1.013195e+05 1.013195e+05 1.013200e+05 1.013024e+05 1.012985e+05 1.014208e+05 1.013700e+05 1.013700e+05 1.013052e+05 1.013022e+05 1.013022e+05 1.013198e+05 1.012923e+05 1.012949e+05 1.012949e+05 1.014092e+05 1.012842e+05 1.012943e+05 1.012998e+05 1.013131e+05 1.013087e+05 1.013154e+05 1.013175e+05 1.013036e+05 1.012902e+05 1.012797e+05 1.012427e+05 1.013140e+05 1.013128e+05 1.013160e+05 1.013174e+05 1.012959e+05 1.013173e+05 1.013095e+05 1.013176e+05 1.013184e+05 1.013184e+05 1.013184e+05 1.013172e+05 1.012988e+05 1.012988e+05 1.013049e+05 1.013186e+05 1.013016e+05 1.013032e+05 1.013040e+05 1.013199e+05 1.013038e+05 1.013172e+05 1.013143e+05 1.013143e+05 1.013145e+05 1.013209e+05 1.013138e+05 1.013108e+05 1.013108e+05 1.013119e+05 1.013052e+05 1.013108e+05 1.013101e+05 1.013130e+05 1.013165e+05 1.013129e+05 1.013152e+05 1.013165e+05 1.013165e+05 1.013218e+05 1.013145e+05 1.013122e+05 1.013143e+05 1.013178e+05 1.013178e+05 1.013187e+05 1.013158e+05 1.013200e+05 1.013200e+05 1.013140e+05 1.013172e+05 1.013172e+05 1.013160e+05 1.013160e+05 1.013162e+05 1.013185e+05 1.013155e+05 1.013150e+05 1.013179e+05 1.013179e+05 1.013179e+05 1.013198e+05 1.013183e+05 1.013249e+05 1.013182e+05 1.013122e+05 1.013162e+05 1.013099e+05 1.013180e+05 1.013137e+05 1.013163e+05 1.013163e+05 1.013166e+05 1.013176e+05 1.013176e+05 1.013164e+05 1.013164e+05 1.013156e+05 1.013098e+05 1.013172e+05 1.013167e+05 1.013181e+05 1.013187e+05 1.013181e+05 1.013172e+05 1.013174e+05 1.013173e+05 1.013181e+05 1.012492e+05 1.012624e+05 1.012816e+05 1.013051e+05 1.012977e+05 1.012573e+05 1.012447e+05 1.012736e+05 1.013508e+05 1.012844e+05 1.013072e+05 1.012980e+05 1.012682e+05 1.013164e+05 1.012942e+05 1.012818e+05 1.013136e+05 1.012558e+05 1.012646e+05 1.012803e+05 1.012741e+05 1.012005e+05 1.012487e+05 1.013023e+05 1.012265e+05 1.012254e+05 1.011985e+05 1.012660e+05 1.012253e+05 1.012370e+05 1.012468e+05 1.012313e+05 1.012337e+05 1.012536e+05 1.013031e+05 1.012528e+05 1.012405e+05 1.013033e+05 1.012081e+05 1.012446e+05 1.012814e+05 1.013013e+05 1.012941e+05 1.012279e+05 1.012743e+05 1.012247e+05 1.012845e+05 1.013200e+05 1.011601e+05 1.012600e+05 1.012053e+05 1.012731e+05 1.012608e+05 1.012118e+05 1.011851e+05 1.010937e+05 1.012636e+05 1.011834e+05 1.013190e+05 1.012253e+05 1.012039e+05 1.012129e+05 1.012062e+05 1.012788e+05 1.011886e+05 1.012604e+05 1.012277e+05 1.012507e+05 1.012765e+05 1.012739e+05 1.012285e+05 1.012226e+05 1.012116e+05 1.011999e+05 1.013254e+05 1.013003e+05 1.012328e+05 1.013887e+05 1.013374e+05 1.013210e+05 1.012776e+05 1.012776e+05 1.013700e+05 1.013018e+05 1.014092e+05 1.014208e+05 1.014208e+05 1.012949e+05 1.013071e+05 1.012480e+05 1.012091e+05 1.013485e+05 1.013218e+05 1.013089e+05 1.012985e+05 1.012797e+05 1.012723e+05 1.012748e+05 1.012715e+05 1.012963e+05 1.013016e+05 1.012865e+05 1.012865e+05 1.013143e+05 1.012973e+05 1.013143e+05 1.013052e+05 1.013199e+05 1.013199e+05 1.013025e+05 1.013050e+05 1.013024e+05 1.013273e+05 1.013068e+05 1.013484e+05 1.012946e+05 1.012988e+05 1.013038e+05 1.013138e+05 1.013074e+05 1.013032e+05 1.013080e+05 1.013040e+05 1.013108e+05 1.013433e+05 1.013052e+05 1.013124e+05 1.013172e+05 1.013172e+05 1.013134e+05 1.013143e+05 1.013218e+05 1.013218e+05 1.013076e+05 1.013145e+05 1.013145e+05 1.013145e+05 1.013126e+05 1.013165e+05 1.013209e+05 1.013209e+05 1.013108e+05 1.013108e+05 1.013165e+05 1.013187e+05 1.013185e+05 1.013200e+05 1.013249e+05 1.013143e+05 1.013143e+05 1.013178e+05 1.013180e+05 1.013185e+05 1.013180e+05 1.013180e+05 1.013158e+05 1.013158e+05 1.013158e+05 1.013168e+05 1.013219e+05 1.013219e+05 1.013219e+05 1.013181e+05 1.013181e+05 1.013181e+05 1.013205e+05 1.013147e+05 1.013147e+05 1.013147e+05 1.013110e+05 1.013106e+05 1.013106e+05 1.013106e+05 1.013063e+05 1.012968e+05 1.012968e+05 1.012968e+05 1.013090e+05 1.012877e+05 1.013071e+05 1.013071e+05 1.013071e+05 1.012925e+05 1.013104e+05 1.013104e+05 1.013104e+05 1.012971e+05 1.012971e+05 1.012971e+05 1.013208e+05 1.012938e+05 1.013429e+05 1.013429e+05 1.013429e+05 1.012376e+05 1.013127e+05 1.013127e+05 1.013127e+05 1.013252e+05 1.013252e+05 1.010834e+05 1.010834e+05 1.010834e+05 1.014157e+05 1.013147e+05 1.010742e+05 1.010742e+05 1.010742e+05 1.014918e+05 1.011972e+05 1.012387e+05 1.012387e+05 1.012387e+05 1.013554e+05 1.011198e+05 1.011198e+05 1.011198e+05 1.013945e+05 1.013945e+05 1.014207e+05 1.014207e+05 1.012524e+05 1.012524e+05 1.012524e+05 1.014171e+05 1.013977e+05 1.013977e+05 1.013977e+05 1.014580e+05 1.012258e+05 1.012258e+05 1.012384e+05 1.012384e+05 1.012553e+05 1.012553e+05 1.012553e+05 1.012324e+05 1.012324e+05 1.013088e+05 1.013088e+05 1.013088e+05 1.013190e+05 1.013190e+05 1.012213e+05 1.013440e+05 1.013440e+05 1.013440e+05 1.013245e+05 1.013367e+05 1.013367e+05 1.013367e+05 1.013147e+05 1.013147e+05 1.012974e+05 1.012974e+05 1.012974e+05 1.012983e+05 1.012983e+05 1.012900e+05 1.012900e+05 1.012900e+05 1.012935e+05 1.012935e+05 1.012964e+05 1.012964e+05 1.012964e+05 1.012983e+05 1.012983e+05 1.013238e+05 1.013238e+05 1.013238e+05 1.013100e+05 1.013113e+05 1.013113e+05 1.013113e+05 1.013193e+05 1.013121e+05 1.013121e+05 1.013121e+05 1.013094e+05 1.013094e+05 1.013164e+05 1.013164e+05 1.013164e+05 1.013142e+05 1.013142e+05 1.013142e+05 1.013073e+05 1.013073e+05 1.013230e+05 1.013230e+05 1.013230e+05 1.013189e+05 1.013189e+05 1.013143e+05 1.013143e+05 1.013143e+05 1.013133e+05 1.012959e+05 1.012959e+05 1.013061e+05 1.013061e+05 1.013061e+05 1.012982e+05 1.012982e+05 1.012985e+05 1.012985e+05 1.013119e+05 1.013119e+05 1.013119e+05 1.013119e+05 1.012656e+05 1.012656e+05 1.012656e+05 1.013155e+05 1.013253e+05 1.013253e+05 1.012738e+05 1.012738e+05 1.012738e+05 1.012690e+05 1.012690e+05 1.012690e+05 1.012855e+05 1.012855e+05 1.012227e+05 1.012227e+05 1.012227e+05 1.013573e+05 1.013573e+05 1.013639e+05 1.013639e+05 1.012710e+05 1.011266e+05 1.011266e+05 1.011266e+05 1.014396e+05 1.014396e+05 1.012253e+05 1.010972e+05 1.010972e+05 1.010972e+05 1.015276e+05 1.014650e+05 1.014917e+05 1.012937e+05 1.012937e+05 1.012937e+05 1.011715e+05 1.011715e+05 1.011715e+05 1.012429e+05 1.012429e+05 1.012429e+05 1.013006e+05 1.013006e+05 1.013006e+05 1.012955e+05 1.012955e+05 1.013139e+05 1.013139e+05 1.013139e+05 1.012968e+05 1.012968e+05 1.012889e+05 1.012889e+05 1.013042e+05 1.013042e+05 1.012888e+05 1.012888e+05 1.012888e+05 1.013118e+05 1.013118e+05 1.013099e+05 1.013099e+05 1.013149e+05 1.013149e+05 1.013235e+05 1.013229e+05 1.013235e+05 1.013235e+05 1.013103e+05 1.013101e+05 1.013101e+05 1.013015e+05 1.013015e+05 1.013015e+05 1.012818e+05 1.012818e+05 1.012818e+05 1.013140e+05 1.012115e+05 1.012115e+05 1.011505e+05 1.011505e+05 1.013771e+05 1.011506e+05 1.014167e+05 1.012129e+05 1.014724e+05 1.014724e+05 1.011266e+05 1.011266e+05 1.013119e+05 1.012468e+05 1.013962e+05 1.013962e+05 1.013015e+05 1.013015e+05 1.013015e+05 1.014398e+05 1.014643e+05 1.012977e+05 1.013817e+05 1.013817e+05 1.013031e+05 1.011996e+05 1.011996e+05 1.012213e+05 1.012796e+05 1.012796e+05 1.013955e+05 1.014093e+05 1.014093e+05 1.014093e+05 1.014581e+05 1.011440e+05 1.011440e+05 1.011933e+05 1.013304e+05 1.013304e+05 1.013304e+05 1.012366e+05 1.012366e+05 1.012521e+05 1.013796e+05 1.013796e+05 1.014662e+05 1.012736e+05 1.014197e+05 1.015108e+05 1.015108e+05 1.015208e+05 1.010619e+05 1.010947e+05 1.010947e+05 1.009627e+05 1.012636e+05 1.009603e+05 1.009603e+05 1.014752e+05 1.012573e+05 1.014539e+05 1.013899e+05 1.011243e+05 1.013497e+05 1.013719e+05 1.013719e+05 1.014172e+05 1.011601e+05 1.013138e+05 1.012760e+05 1.012760e+05 1.012760e+05 1.012619e+05 1.012619e+05 1.013349e+05 1.013349e+05 1.013699e+05 1.013650e+05 1.012764e+05 1.012284e+05 1.015104e+05 1.015104e+05 1.013842e+05 1.012811e+05 1.012290e+05 1.013156e+05 1.013341e+05 1.013976e+05 1.011057e+05 1.012143e+05 1.012237e+05 1.012237e+05 1.013300e+05 1.011717e+05 1.013125e+05 1.012865e+05 1.013903e+05 1.013248e+05 1.013248e+05 1.012827e+05 1.013569e+05 1.012709e+05 1.012709e+05 1.014363e+05 1.012894e+05 1.012894e+05 1.012894e+05 1.012705e+05 1.013033e+05 1.014126e