<?xml version="1.0"?>
 <VTKFile type="UnstructuredGrid" version="1.0" byte_order="LittleEndian" header_type="UInt64">
  <UnstructuredGrid>
    <FieldData>
     <DataArray type="Float64" Name="TimeValue" NumberOfTuples="1" format="ascii">
9.72353e-06
     </DataArray>
    </FieldData>
   <Piece NumberOfPoints="3632" NumberOfCells="3379">
    <PointData>
     <DataArray type="Float64" Name="pointP" format="ascii">
1.013966e+05 1.013966e+05 1.014195e+05 1.014109e+05 1.015477e+05 1.014416e+05 1.014113e+05 1.014189e+05 1.015262e+05 1.014367e+05 1.014602e+05 1.014857e+05 1.014062e+05 1.013924e+05 1.013528e+05 1.014751e+05 1.013918e+05 1.014018e+05 1.014279e+05 1.015313e+05 1.014240e+05 1.014170e+05 1.014301e+05 1.014461e+05 1.014483e+05 1.013629e+05 1.014698e+05 1.014251e+05 1.013968e+05 1.014114e+05 1.013986e+05 1.014417e+05 1.013929e+05 1.012940e+05 1.015111e+05 1.013878e+05 1.013917e+05 1.013993e+05 1.013659e+05 1.013737e+05 1.013727e+05 1.014352e+05 1.013964e+05 1.014573e+05 1.013849e+05 1.013938e+05 1.014671e+05 1.013747e+05 1.014163e+05 1.013993e+05 1.013878e+05 1.013639e+05 1.013687e+05 1.013455e+05 1.014406e+05 1.013366e+05 1.014189e+05 1.013778e+05 1.013956e+05 1.013887e+05 1.013736e+05 1.013146e+05 1.014074e+05 1.013694e+05 1.013652e+05 1.013070e+05 1.014088e+05 1.013642e+05 1.013585e+05 1.013269e+05 1.013582e+05 1.013382e+05 1.013534e+05 1.013277e+05 1.013645e+05 1.013380e+05 1.013489e+05 1.013283e+05 1.013304e+05 1.013193e+05 1.013614e+05 1.013559e+05 1.013426e+05 1.013298e+05 1.013559e+05 1.013430e+05 1.013308e+05 1.013216e+05 1.013300e+05 1.013045e+05 1.013206e+05 1.013419e+05 1.013216e+05 1.013470e+05 1.013308e+05 1.013180e+05 1.013174e+05 1.013184e+05 1.013031e+05 1.013447e+05 1.012945e+05 1.013039e+05 1.013082e+05 1.013066e+05 1.012839e+05 1.013025e+05 1.013283e+05 1.013118e+05 1.013127e+05 1.013386e+05 1.013352e+05 1.013336e+05 1.012789e+05 1.013264e+05 1.012224e+05 1.012725e+05 1.012732e+05 1.012286e+05 1.012941e+05 1.013071e+05 1.012592e+05 1.012433e+05 1.012774e+05 1.012818e+05 1.013037e+05 1.012716e+05 1.011830e+05 1.012465e+05 1.012840e+05 1.013101e+05 1.012703e+05 1.013067e+05 1.011891e+05 1.012868e+05 1.012912e+05 1.013103e+05 1.012891e+05 1.013161e+05 1.012588e+05 1.012210e+05 1.012588e+05 1.012901e+05 1.012107e+05 1.012416e+05 1.012629e+05 1.012064e+05 1.012625e+05 1.012540e+05 1.012426e+05 1.011856e+05 1.012343e+05 1.012983e+05 1.012118e+05 1.012303e+05 1.012564e+05 1.012155e+05 1.012338e+05 1.012873e+05 1.012246e+05 1.012405e+05 1.012487e+05 1.012752e+05 1.011820e+05 1.011543e+05 1.011731e+05 1.012373e+05 1.012516e+05 1.010768e+05 1.011676e+05 1.011380e+05 1.013236e+05 1.012193e+05 1.012421e+05 1.012541e+05 1.012026e+05 1.012221e+05 1.012876e+05 1.011984e+05 1.012079e+05 1.012317e+05 1.011427e+05 1.013261e+05 1.013261e+05 1.013261e+05 1.013275e+05 1.013275e+05 1.013275e+05 1.013278e+05 1.013276e+05 1.013294e+05 1.013284e+05 1.013314e+05 1.013314e+05 1.013314e+05 1.013312e+05 1.013211e+05 1.013211e+05 1.013211e+05 1.013208e+05 1.013217e+05 1.013497e+05 1.013497e+05 1.013497e+05 1.013503e+05 1.013578e+05 1.013578e+05 1.013578e+05 1.013413e+05 1.013250e+05 1.013250e+05 1.013250e+05 1.013201e+05 1.013332e+05 1.013200e+05 1.013067e+05 1.013067e+05 1.013067e+05 1.012927e+05 1.012927e+05 1.013429e+05 1.013429e+05 1.013429e+05 1.013615e+05 1.013319e+05 1.013319e+05 1.013319e+05 1.013108e+05 1.013108e+05 1.013913e+05 1.013913e+05 1.013913e+05 1.012765e+05 1.012765e+05 1.012765e+05 1.013983e+05 1.013212e+05 1.013212e+05 1.013212e+05 1.012718e+05 1.012718e+05 1.012718e+05 1.012535e+05 1.013069e+05 1.013069e+05 1.012236e+05 1.012236e+05 1.013509e+05 1.013509e+05 1.012730e+05 1.013622e+05 1.013622e+05 1.013622e+05 1.015319e+05 1.015319e+05 1.013148e+05 1.013148e+05 1.013148e+05 1.012917e+05 1.012917e+05 1.013236e+05 1.013236e+05 1.013236e+05 1.013226e+05 1.013226e+05 1.013454e+05 1.013454e+05 1.013209e+05 1.013209e+05 1.013209e+05 1.013536e+05 1.014512e+05 1.014512e+05 1.014512e+05 1.012211e+05 1.014032e+05 1.013243e+05 1.013243e+05 1.013243e+05 1.014222e+05 1.014222e+05 1.012889e+05 1.013878e+05 1.010885e+05 1.010885e+05 1.012541e+05 1.012182e+05 1.012182e+05 1.012848e+05 1.013037e+05 1.013448e+05 1.013304e+05 1.013273e+05 1.013273e+05 1.013273e+05 1.013279e+05 1.013231e+05 1.013278e+05 1.013278e+05 1.013278e+05 1.013291e+05 1.013291e+05 1.013209e+05 1.013209e+05 1.013209e+05 1.013207e+05 1.013150e+05 1.013150e+05 1.013150e+05 1.013141e+05 1.013492e+05 1.013527e+05 1.013462e+05 1.013508e+05 1.013508e+05 1.013302e+05 1.013302e+05 1.013302e+05 1.013322e+05 1.013393e+05 1.013393e+05 1.013393e+05 1.013481e+05 1.013481e+05 1.013346e+05 1.013118e+05 1.013118e+05 1.013118e+05 1.013126e+05 1.013153e+05 1.013153e+05 1.013153e+05 1.013111e+05 1.013215e+05 1.013283e+05 1.013283e+05 1.013283e+05 1.013402e+05 1.013025e+05 1.012974e+05 1.013249e+05 1.013249e+05 1.013249e+05 1.013177e+05 1.013265e+05 1.013265e+05 1.013265e+05 1.012761e+05 1.013384e+05 1.013384e+05 1.013384e+05 1.013287e+05 1.013287e+05 1.013266e+05 1.013266e+05 1.013266e+05 1.013001e+05 1.013537e+05 1.013537e+05 1.013537e+05 1.013438e+05 1.012767e+05 1.012767e+05 1.012767e+05 1.013223e+05 1.013515e+05 1.013515e+05 1.012546e+05 1.013648e+05 1.013648e+05 1.013098e+05 1.013098e+05 1.013098e+05 1.013681e+05 1.013681e+05 1.013681e+05 1.013697e+05 1.010725e+05 1.010725e+05 1.010725e+05 1.011148e+05 1.011148e+05 1.016784e+05 1.016784e+05 1.016784e+05 1.015236e+05 1.015236e+05 1.012921e+05 1.013062e+05 1.013062e+05 1.011500e+05 1.012332e+05 1.012332e+05 1.012332e+05 1.011151e+05 1.013172e+05 1.013172e+05 1.012374e+05 1.012374e+05 1.012743e+05 1.012743e+05 1.013834e+05 1.012444e+05 1.012444e+05 1.013394e+05 1.013394e+05 1.012403e+05 1.012403e+05 1.013103e+05 1.013103e+05 1.013103e+05 1.014997e+05 1.012750e+05 1.013479e+05 1.013651e+05 1.013651e+05 1.013651e+05 1.013246e+05 1.012982e+05 1.012982e+05 1.012982e+05 1.013513e+05 1.013513e+05 1.012810e+05 1.012810e+05 1.012810e+05 1.012826e+05 1.012826e+05 1.013529e+05 1.013232e+05 1.013403e+05 1.013403e+05 1.013403e+05 1.013385e+05 1.012643e+05 1.012643e+05 1.012643e+05 1.012704e+05 1.012704e+05 1.013007e+05 1.013362e+05 1.013363e+05 1.013363e+05 1.013363e+05 1.013588e+05 1.013588e+05 1.013090e+05 1.013232e+05 1.013232e+05 1.012969e+05 1.012969e+05 1.012969e+05 1.013015e+05 1.013015e+05 1.013206e+05 1.013206e+05 1.013206e+05 1.013123e+05 1.013123e+05 1.013129e+05 1.013129e+05 1.013006e+05 1.013006e+05 1.013475e+05 1.013475e+05 1.013256e+05 1.012869e+05 1.012869e+05 1.012848e+05 1.012848e+05 1.013060e+05 1.013060e+05 1.013060e+05 1.013149e+05 1.013186e+05 1.013186e+05 1.013186e+05 1.013188e+05 1.013188e+05 1.013476e+05 1.013441e+05 1.013434e+05 1.013278e+05 1.013278e+05 1.013278e+05 1.013286e+05 1.013286e+05 1.013304e+05 1.013304e+05 1.013308e+05 1.013263e+05 1.013263e+05 1.013260e+05 1.013254e+05 1.013315e+05 1.013315e+05 1.013315e+05 1.013305e+05 1.013305e+05 1.013305e+05 1.013342e+05 1.013342e+05 1.013342e+05 1.013213e+05 1.013209e+05 1.013284e+05 1.013352e+05 1.013352e+05 1.013352e+05 1.013333e+05 1.013375e+05 1.013375e+05 1.013375e+05 1.013379e+05 1.013379e+05 1.013379e+05 1.013355e+05 1.013108e+05 1.013108e+05 1.013108e+05 1.013083e+05 1.013083e+05 1.013083e+05 1.013300e+05 1.013300e+05 1.013300e+05 1.013443e+05 1.013443e+05 1.013471e+05 1.013072e+05 1.013124e+05 1.013124e+05 1.013435e+05 1.013435e+05 1.013435e+05 1.013400e+05 1.013400e+05 1.013319e+05 1.013319e+05 1.012828e+05 1.012745e+05 1.012974e+05 1.013450e+05 1.013450e+05 1.013450e+05 1.013672e+05 1.013332e+05 1.013332e+05 1.013332e+05 1.013246e+05 1.013405e+05 1.013252e+05 1.013267e+05 1.013267e+05 1.013267e+05 1.012817e+05 1.012817e+05 1.012817e+05 1.013477e+05 1.012534e+05 1.013108e+05 1.013108e+05 1.013108e+05 1.013536e+05 1.013536e+05 1.013536e+05 1.013817e+05 1.013635e+05 1.013635e+05 1.013635e+05 1.013169e+05 1.014299e+05 1.014299e+05 1.014299e+05 1.013340e+05 1.013638e+05 1.013638e+05 1.014489e+05 1.014489e+05 1.014489e+05 1.012400e+05 1.013755e+05 1.013239e+05 1.013239e+05 1.012901e+05 1.013945e+05 1.011141e+05 1.013737e+05 1.013737e+05 1.012956e+05 1.012956e+05 1.012956e+05 1.013360e+05 1.011224e+05 1.011224e+05 1.011224e+05 1.014837e+05 1.013694e+05 1.013817e+05 1.013817e+05 1.014413e+05 1.014413e+05 1.014413e+05 1.012450e+05 1.014475e+05 1.013929e+05 1.013929e+05 1.012366e+05 1.013651e+05 1.013651e+05 1.013651e+05 1.016218e+05 1.016218e+05 1.011583e+05 1.011583e+05 1.011583e+05 1.011458e+05 1.012123e+05 1.012123e+05 1.012123e+05 1.013666e+05 1.013666e+05 1.012683e+05 1.012712e+05 1.012712e+05 1.013015e+05 1.012017e+05 1.012017e+05 1.015335e+05 1.012440e+05 1.013657e+05 1.013739e+05 1.013657e+05 1.013657e+05 1.012662e+05 1.012662e+05 1.012662e+05 1.013280e+05 1.013280e+05 1.013671e+05 1.013671e+05 1.013583e+05 1.013583e+05 1.013488e+05 1.013488e+05 1.013488e+05 1.013351e+05 1.013351e+05 1.013284e+05 1.013284e+05 1.013284e+05 1.013252e+05 1.013252e+05 1.013731e+05 1.013731e+05 1.013731e+05 1.013689e+05 1.013689e+05 1.013379e+05 1.013379e+05 1.013379e+05 1.013292e+05 1.012960e+05 1.012960e+05 1.012960e+05 1.012959e+05 1.012959e+05 1.013062e+05 1.013062e+05 1.013062e+05 1.013043e+05 1.013043e+05 1.013146e+05 1.013146e+05 1.013146e+05 1.013183e+05 1.013183e+05 1.013527e+05 1.013527e+05 1.013527e+05 1.013317e+05 1.013317e+05 1.013317e+05 1.013320e+05 1.013320e+05 1.013187e+05 1.013208e+05 1.013146e+05 1.013146e+05 1.013146e+05 1.013149e+05 1.013297e+05 1.013297e+05 1.013296e+05 1.013254e+05 1.013254e+05 1.013254e+05 1.013254e+05 1.013262e+05 1.013268e+05 1.013346e+05 1.013328e+05 1.013346e+05 1.013346e+05 1.013294e+05 1.013294e+05 1.013272e+05 1.013374e+05 1.013380e+05 1.013527e+05 1.013527e+05 1.013527e+05 1.013509e+05 1.013593e+05 1.013140e+05 1.013140e+05 1.013140e+05 1.013181e+05 1.013059e+05 1.013164e+05 1.012749e+05 1.012749e+05 1.012749e+05 1.013185e+05 1.013715e+05 1.012322e+05 1.015193e+05 1.013422e+05 1.013422e+05 1.013279e+05 1.010624e+05 1.011351e+05 1.011351e+05 1.014571e+05 1.012022e+05 1.014724e+05 1.011869e+05 1.013374e+05 1.015027e+05 1.015027e+05 1.015027e+05 1.011563e+05 1.011784e+05 1.011784e+05 1.011784e+05 1.015171e+05 1.011990e+05 1.012625e+05 1.011392e+05 1.011392e+05 1.013950e+05 1.013950e+05 1.013950e+05 1.012767e+05 1.012167e+05 1.012167e+05 1.012747e+05 1.012747e+05 1.012747e+05 1.011779e+05 1.013584e+05 1.013584e+05 1.013734e+05 1.014022e+05 1.014022e+05 1.014022e+05 1.011887e+05 1.012728e+05 1.014397e+05 1.014397e+05 1.011019e+05 1.012338e+05 1.012525e+05 1.012525e+05 1.014076e+05 1.014076e+05 1.014076e+05 1.015206e+05 1.013168e+05 1.015020e+05 1.015020e+05 1.011709e+05 1.012128e+05 1.012128e+05 1.012793e+05 1.013389e+05 1.013389e+05 1.013170e+05 1.014813e+05 1.013071e+05 1.013737e+05 1.013737e+05 1.011977e+05 1.011977e+05 1.011828e+05 1.011574e+05 1.011574e+05 1.012856e+05 1.012856e+05 1.012856e+05 1.014497e+05 1.011119e+05 1.011119e+05 1.015946e+05 1.015946e+05 1.013207e+05 1.011445e+05 1.013943e+05 1.013522e+05 1.012629e+05 1.012348e+05 1.012348e+05 1.013216e+05 1.012743e+05 1.012743e+05 1.015555e+05 1.015555e+05 1.012223e+05 1.012223e+05 1.014850e+05 1.013415e+05 1.011509e+05 1.011509e+05 1.013458e+05 1.012197e+05 1.012197e+05 1.013727e+05 1.012612e+05 1.014208e+05 1.014208e+05 1.014208e+05 1.015263e+05 1.015263e+05 1.015263e+05 1.013608e+05 1.012639e+05 1.012639e+05 1.012560e+05 1.014310e+05 1.014310e+05 1.012169e+05 1.012525e+05 1.012682e+05 1.012682e+05 1.012682e+05 1.014643e+05 1.014643e+05 1.013964e+05 1.013562e+05 1.013562e+05 1.013304e+05 1.013892e+05 1.013559e+05 1.012929e+05 1.013677e+05 1.014945e+05 1.014945e+05 1.013027e+05 1.013027e+05 1.013027e+05 1.012648e+05 1.012325e+05 1.014329e+05 1.014978e+05 1.014978e+05 1.015045e+05 1.014317e+05 1.014317e+05 1.014174e+05 1.014174e+05 1.015530e+05 1.013070e+05 1.014217e+05 1.014217e+05 1.013905e+05 1.011894e+05 1.011894e+05 1.013165e+05 1.013165e+05 1.013329e+05 1.013329e+05 1.013329e+05 1.011726e+05 1.011726e+05 1.011726e+05 1.013215e+05 1.013215e+05 1.013203e+05 1.012694e+05 1.012098e+05 1.012520e+05 1.014495e+05 1.011330e+05 1.014274e+05 1.013257e+05 1.013660e+05 1.013271e+05 1.013271e+05 1.013442e+05 1.012869e+05 1.012096e+05 1.012482e+05 1.013398e+05 1.013398e+05 1.013966e+05 1.014068e+05 1.012585e+05 1.012585e+05 1.012585e+05 1.010999e+05 1.015677e+05 1.013752e+05 1.012634e+05 1.012801e+05 1.014849e+05 1.014849e+05 1.012225e+05 1.014242e+05 1.013256e+05 1.014051e+05 1.012452e+05 1.014064e+05 1.014064e+05 1.014064e+05 1.013797e+05 1.012606e+05 1.012606e+05 1.012606e+05 1.013138e+05 1.015293e+05 1.013581e+05 1.013088e+05 1.013957e+05 1.013137e+05 1.013159e+05 1.013680e+05 1.013337e+05 1.012620e+05 1.012620e+05 1.013089e+05 1.013079e+05 1.013913e+05 1.013796e+05 1.013136e+05 1.013744e+05 1.013744e+05 1.012195e+05 1.012195e+05 1.012611e+05 1.012611e+05 1.012885e+05 1.013973e+05 1.012227e+05 1.014675e+05 1.012020e+05 1.013181e+05 1.012663e+05 1.012640e+05 1.013369e+05 1.013369e+05 1.013256e+05 1.013256e+05 1.012792e+05 1.012792e+05 1.014175e+05 1.013427e+05 1.013281e+05 1.013281e+05 1.013115e+05 1.013127e+05 1.013127e+05 1.013482e+05 1.013482e+05 1.012615e+05 1.012615e+05 1.013338e+05 1.013724e+05 1.013724e+05 1.013543e+05 1.013543e+05 1.013543e+05 1.014106e+05 1.012251e+05 1.012251e+05 1.012826e+05 1.012826e+05 1.013534e+05 1.012909e+05 1.012468e+05 1.013026e+05 1.014251e+05 1.012120e+05 1.012120e+05 1.013358e+05 1.013358e+05 1.013280e+05 1.013162e+05 1.013162e+05 1.012358e+05 1.012358e+05 1.012898e+05 1.012898e+05 1.013008e+05 1.014935e+05 1.013173e+05 1.013173e+05 1.013448e+05 1.014171e+05 1.012838e+05 1.014533e+05 1.013219e+05 1.013230e+05 1.012783e+05 1.012376e+05 1.012466e+05 1.012466e+05 1.012466e+05 1.013256e+05 1.013256e+05 1.013256e+05 1.013091e+05 1.012485e+05 1.012485e+05 1.012485e+05 1.012246e+05 1.014396e+05 1.014010e+05 1.013324e+05 1.013722e+05 1.013722e+05 1.012915e+05 1.012915e+05 1.012915e+05 1.013706e+05 1.012226e+05 1.014364e+05 1.014151e+05 1.014151e+05 1.013336e+05 1.013750e+05 1.013078e+05 1.013078e+05 1.012720e+05 1.012443e+05 1.012443e+05 1.013155e+05 1.011243e+05 1.013392e+05 1.012877e+05 1.013820e+05 1.013255e+05 1.013338e+05 1.012947e+05 1.013274e+05 1.013274e+05 1.013274e+05 1.013452e+05 1.013452e+05 1.013261e+05 1.013156e+05 1.013156e+05 1.013862e+05 1.013383e+05 1.012788e+05 1.012901e+05 1.013306e+05 1.013306e+05 1.013306e+05 1.013802e+05 1.012873e+05 1.012873e+05 1.012770e+05 1.012772e+05 1.012772e+05 1.013488e+05 1.013488e+05 1.013488e+05 1.013672e+05 1.013598e+05 1.013345e+05 1.013345e+05 1.013345e+05 1.013562e+05 1.013718e+05 1.013046e+05 1.013046e+05 1.013178e+05 1.013178e+05 1.013142e+05 1.012979e+05 1.012979e+05 1.013244e+05 1.013062e+05 1.013707e+05 1.013707e+05 1.013049e+05 1.013146e+05 1.013263e+05 1.013739e+05 1.013490e+05 1.013538e+05 1.012787e+05 1.013724e+05 1.012753e+05 1.012753e+05 1.013445e+05 1.013445e+05 1.013654e+05 1.013411e+05 1.013377e+05 1.013419e+05 1.013382e+05 1.013228e+05 1.013267e+05 1.013737e+05 1.013737e+05 1.013356e+05 1.013356e+05 1.013356e+05 1.013872e+05 1.012982e+05 1.012982e+05 1.013275e+05 1.012832e+05 1.012994e+05 1.013456e+05 1.012945e+05 1.013113e+05 1.013113e+05 1.013113e+05 1.013322e+05 1.012914e+05 1.014195e+05 1.013262e+05 1.013569e+05 1.013569e+05 1.013315e+05 1.013315e+05 1.013315e+05 1.013202e+05 1.013579e+05 1.013579e+05 1.014300e+05 1.014300e+05 1.013028e+05 1.013382e+05 1.013518e+05 1.013522e+05 1.013110e+05 1.013050e+05 1.013265e+05 1.013358e+05 1.013377e+05 1.013668e+05 1.013668e+05 1.013668e+05 1.013032e+05 1.012761e+05 1.013340e+05 1.012818e+05 1.012684e+05 1.013102e+05 1.013064e+05 1.013593e+05 1.013097e+05 1.013097e+05 1.013527e+05 1.013331e+05 1.013331e+05 1.013439e+05 1.013318e+05 1.013318e+05 1.013095e+05 1.013441e+05 1.013441e+05 1.013092e+05 1.013474e+05 1.013694e+05 1.013694e+05 1.013671e+05 1.013555e+05 1.013555e+05 1.013095e+05 1.012627e+05 1.012531e+05 1.013228e+05 1.013462e+05 1.013462e+05 1.013024e+05 1.012884e+05 1.013043e+05 1.013116e+05 1.013323e+05 1.013834e+05 1.013834e+05 1.013521e+05 1.013521e+05 1.013521e+05 1.013042e+05 1.013213e+05 1.013612e+05 1.013541e+05 1.013541e+05 1.013467e+05 1.013430e+05 1.013430e+05 1.013233e+05 1.013462e+05 1.013306e+05 1.012905e+05 1.013492e+05 1.013492e+05 1.013492e+05 1.013421e+05 1.013376e+05 1.013586e+05 1.013307e+05 1.013091e+05 1.012758e+05 1.012758e+05 1.012758e+05 1.013495e+05 1.013495e+05 1.013495e+05 1.013274e+05 1.013221e+05 1.012378e+05 1.013123e+05 1.013191e+05 1.012899e+05 1.012899e+05 1.012695e+05 1.012901e+05 1.012941e+05 1.012941e+05 1.012866e+05 1.013423e+05 1.013423e+05 1.013343e+05 1.013397e+05 1.013397e+05 1.013325e+05 1.013182e+05 1.013182e+05 1.013202e+05 1.013083e+05 1.013083e+05 1.012915e+05 1.012915e+05 1.012857e+05 1.012857e+05 1.012857e+05 1.012949e+05 1.013685e+05 1.013685e+05 1.012671e+05 1.012671e+05 1.012671e+05 1.012855e+05 1.013236e+05 1.013532e+05 1.013778e+05 1.013778e+05 1.013762e+05 1.013743e+05 1.013743e+05 1.013743e+05 1.013314e+05 1.013314e+05 1.013524e+05 1.013210e+05 1.013210e+05 1.013336e+05 1.012664e+05 1.012839e+05 1.012839e+05 1.013497e+05 1.013622e+05 1.013128e+05 1.013128e+05 1.013128e+05 1.013484e+05 1.013186e+05 1.013186e+05 1.012998e+05 1.012998e+05 1.013390e+05 1.013390e+05 1.012988e+05 1.012988e+05 1.012506e+05 1.012506e+05 1.013369e+05 1.013311e+05 1.013233e+05 1.013319e+05 1.013330e+05 1.013330e+05 1.013330e+05 1.013240e+05 1.013329e+05 1.013207e+05 1.013578e+05 1.013682e+05 1.013004e+05 1.013397e+05 1.013397e+05 1.013744e+05 1.013684e+05 1.013684e+05 1.013397e+05 1.013067e+05 1.013582e+05 1.013582e+05 1.013489e+05 1.012850e+05 1.012850e+05 1.013418e+05 1.013345e+05 1.013733e+05 1.013248e+05 1.013695e+05 1.013552e+05 1.013552e+05 1.012997e+05 1.013157e+05 1.012865e+05 1.013323e+05 1.013393e+05 1.012900e+05 1.012900e+05 1.013289e+05 1.013289e+05 1.013192e+05 1.013115e+05 1.012895e+05 1.012895e+05 1.013418e+05 1.013494e+05 1.013277e+05 1.013261e+05 1.013261e+05 1.013261e+05 1.013180e+05 1.013180e+05 1.013792e+05 1.013354e+05 1.013386e+05 1.013685e+05 1.013685e+05 1.013387e+05 1.013387e+05 1.013226e+05 1.013353e+05 1.013353e+05 1.013319e+05 1.013319e+05 1.013319e+05 1.013490e+05 1.013490e+05 1.013323e+05 1.013323e+05 1.013244e+05 1.013112e+05 1.013410e+05 1.013410e+05 1.013410e+05 1.012977e+05 1.013644e+05 1.013803e+05 1.013803e+05 1.013240e+05 1.012872e+05 1.012745e+05 1.013045e+05 1.013317e+05 1.013369e+05 1.013110e+05 1.013622e+05 1.013633e+05 1.013633e+05 1.013391e+05 1.013391e+05 1.013711e+05 1.013496e+05 1.013613e+05 1.013150e+05 1.013091e+05 1.013091e+05 1.012935e+05 1.013110e+05 1.013570e+05 1.013183e+05 1.013348e+05 1.013153e+05 1.013833e+05 1.013311e+05 1.013311e+05 1.013416e+05 1.013416e+05 1.013154e+05 1.013161e+05 1.013161e+05 1.013161e+05 1.013309e+05 1.013504e+05 1.013360e+05 1.012910e+05 1.013015e+05 1.013417e+05 1.012885e+05 1.012792e+05 1.012987e+05 1.013058e+05 1.013058e+05 1.013058e+05 1.013332e+05 1.013241e+05 1.013039e+05 1.013431e+05 1.013431e+05 1.013331e+05 1.013485e+05 1.013279e+05 1.013279e+05 1.013585e+05 1.013249e+05 1.013197e+05 1.012993e+05 1.013443e+05 1.013443e+05 1.013432e+05 1.013023e+05 1.012824e+05 1.012824e+05 1.012897e+05 1.013132e+05 1.013132e+05 1.013132e+05 1.013177e+05 1.013259e+05 1.013365e+05 1.013179e+05 1.013183e+05 1.013183e+05 1.013080e+05 1.013027e+05 1.013477e+05 1.013477e+05 1.013578e+05 1.013169e+05 1.013169e+05 1.013169e+05 1.013235e+05 1.013522e+05 1.013314e+05 1.013544e+05 1.013483e+05 1.013321e+05 1.013415e+05 1.013530e+05 1.013603e+05 1.013374e+05 1.013224e+05 1.013025e+05 1.013288e+05 1.013530e+05 1.013530e+05 1.013530e+05 1.013658e+05 1.013562e+05 1.013597e+05 1.013565e+05 1.013658e+05 1.012885e+05 1.013039e+05 1.013095e+05 1.013421e+05 1.013433e+05 1.013348e+05 1.012973e+05 1.012973e+05 1.012973e+05 1.013200e+05 1.013688e+05 1.013688e+05 1.013526e+05 1.013526e+05 1.013378e+05 1.013080e+05 1.013572e+05 1.013197e+05 1.013197e+05 1.013197e+05 1.013075e+05 1.013515e+05 1.013515e+05 1.013226e+05 1.013242e+05 1.013383e+05 1.013050e+05 1.013512e+05 1.013512e+05 1.013512e+05 1.013057e+05 1.013057e+05 1.013057e+05 1.013462e+05 1.013355e+05 1.013555e+05 1.013555e+05 1.013036e+05 1.013036e+05 1.013036e+05 1.013072e+05 1.013092e+05 1.013092e+05 1.013092e+05 1.013496e+05 1.013496e+05 1.013496e+05 1.013568e+05 1.013245e+05 1.013305e+05 1.013311e+05 1.013311e+05 1.013311e+05 1.013249e+05 1.013193e+05 1.013193e+05 1.013462e+05 1.013374e+05 1.013780e+05 1.013236e+05 1.013248e+05 1.013057e+05 1.013089e+05 1.013417e+05 1.013123e+05 1.013044e+05 1.013044e+05 1.013063e+05 1.013444e+05 1.013303e+05 1.013092e+05 1.013125e+05 1.013207e+05 1.013330e+05 1.013160e+05 1.013160e+05 1.013442e+05 1.013462e+05 1.013551e+05 1.013079e+05 1.013324e+05 1.013569e+05 1.013018e+05 1.013018e+05 1.013082e+05 1.013082e+05 1.013470e+05 1.013470e+05 1.013470e+05 1.013422e+05 1.013422e+05 1.013310e+05 1.013516e+05 1.013433e+05 1.013433e+05 1.013158e+05 1.013297e+05 1.013368e+05 1.013414e+05 1.013414e+05 1.013441e+05 1.013480e+05 1.013048e+05 1.013048e+05 1.013344e+05 1.013392e+05 1.013057e+05 1.013057e+05 1.013147e+05 1.013185e+05 1.013185e+05 1.013185e+05 1.013261e+05 1.013098e+05 1.013105e+05 1.013179e+05 1.013179e+05 1.013179e+05 1.013275e+05 1.013254e+05 1.013368e+05 1.013251e+05 1.013156e+05 1.013361e+05 1.013361e+05 1.013361e+05 1.013370e+05 1.013146e+05 1.013471e+05 1.013471e+05 1.013471e+05 1.013408e+05 1.013017e+05 1.013436e+05 1.013436e+05 1.013314e+05 1.013103e+05 1.013103e+05 1.013103e+05 1.013070e+05 1.013070e+05 1.013514e+05 1.013463e+05 1.013463e+05 1.013086e+05 1.013142e+05 1.013142e+05 1.013353e+05 1.013091e+05 1.013091e+05 1.013091e+05 1.013117e+05 1.013117e+05 1.013117e+05 1.013234e+05 1.013234e+05 1.013272e+05 1.013150e+05 1.013045e+05 1.013045e+05 1.013307e+05 1.013306e+05 1.013306e+05 1.013310e+05 1.013310e+05 1.013391e+05 1.013193e+05 1.013187e+05 1.013187e+05 1.013185e+05 1.013185e+05 1.013213e+05 1.013213e+05 1.013283e+05 1.013366e+05 1.013366e+05 1.013323e+05 1.013323e+05 1.013204e+05 1.013339e+05 1.013405e+05 1.013422e+05 1.013422e+05 1.013360e+05 1.013297e+05 1.013202e+05 1.013443e+05 1.013443e+05 1.013354e+05 1.013434e+05 1.013434e+05 1.013105e+05 1.013105e+05 1.013398e+05 1.013400e+05 1.013400e+05 1.013400e+05 1.013416e+05 1.013416e+05 1.013455e+05 1.013352e+05 1.013352e+05 1.013408e+05 1.013408e+05 1.013380e+05 1.013248e+05 1.013281e+05 1.013139e+05 1.013131e+05 1.013409e+05 1.013409e+05 1.013150e+05 1.013150e+05 1.013294e+05 1.013294e+05 1.013104e+05 1.013308e+05 1.013308e+05 1.013279e+05 1.013193e+05 1.013193e+05 1.013371e+05 1.013371e+05 1.013358e+05 1.013328e+05 1.013328e+05 1.013232e+05 1.013232e+05 1.013269e+05 1.013269e+05 1.013264e+05 1.013242e+05 1.013242e+05 1.013182e+05 1.013172e+05 1.013230e+05 1.013319e+05 1.013319e+05 1.013409e+05 1.013400e+05 1.013378e+05 1.013378e+05 1.013404e+05 1.013202e+05 1.013202e+05 1.013179e+05 1.013320e+05 1.013402e+05 1.013411e+05 1.013411e+05 1.013253e+05 1.013253e+05 1.013366e+05 1.013394e+05 1.013236e+05 1.013236e+05 1.013358e+05 1.013358e+05 1.013168e+05 1.013184e+05 1.013184e+05 1.013184e+05 1.013172e+05 1.013172e+05 1.013370e+05 1.013351e+05 1.013323e+05 1.013323e+05 1.013341e+05 1.013341e+05 1.013361e+05 1.013215e+05 1.013394e+05 1.013365e+05 1.013301e+05 1.013275e+05 1.013323e+05 1.013297e+05 1.013339e+05 1.013242e+05 1.013286e+05 1.013305e+05 1.013299e+05 1.013303e+05 1.013334e+05 1.013328e+05 1.013260e+05 1.013260e+05 1.013296e+05 1.013291e+05 1.013316e+05 1.013251e+05 1.013256e+05 1.013303e+05 1.013303e+05 1.013302e+05 1.013302e+05 1.013269e+05 1.013269e+05 1.013293e+05 1.013284e+05 1.013284e+05 1.013284e+05 1.013283e+05 1.013283e+05 1.013221e+05 1.013221e+05 1.013221e+05 1.013181e+05 1.013181e+05 1.013120e+05 1.013137e+05 1.013243e+05 1.013120e+05 1.013120e+05 1.013121e+05 1.013159e+05 1.013189e+05 1.013197e+05 1.013204e+05 1.013206e+05 1.013227e+05 1.013227e+05 1.013238e+05 1.013238e+05 1.013267e+05 1.013114e+05 1.013243e+05 1.013401e+05 1.013351e+05 1.013292e+05 1.013395e+05 1.013395e+05 1.013374e+05 1.013371e+05 1.013374e+05 1.013271e+05 1.013359e+05 1.013280e+05 1.013248e+05 1.013251e+05 1.013251e+05 1.013285e+05 1.013966e+05 1.013966e+05 1.014195e+05 1.014109e+05 1.015477e+05 1.014416e+05 1.014113e+05 1.014189e+05 1.015262e+05 1.014367e+05 1.014602e+05 1.014857e+05 1.014062e+05 1.013924e+05 1.013528e+05 1.014751e+05 1.013918e+05 1.014018e+05 1.014279e+05 1.015313e+05 1.014240e+05 1.014170e+05 1.014301e+05 1.014461e+05 1.014483e+05 1.013629e+05 1.014698e+05 1.014251e+05 1.013968e+05 1.014114e+05 1.013986e+05 1.014417e+05 1.013929e+05 1.012940e+05 1.015111e+05 1.013878e+05 1.013917e+05 1.013993e+05 1.013659e+05 1.013737e+05 1.013727e+05 1.014352e+05 1.013964e+05 1.014573e+05 1.013849e+05 1.013938e+05 1.014671e+05 1.013747e+05 1.014163e+05 1.013993e+05 1.013878e+05 1.013639e+05 1.013687e+05 1.013455e+05 1.014406e+05 1.013366e+05 1.014189e+05 1.013778e+05 1.013956e+05 1.013887e+05 1.013736e+05 1.013146e+05 1.014074e+05 1.013694e+05 1.013652e+05 1.013070e+05 1.014088e+05 1.013642e+05 1.013585e+05 1.013269e+05 1.013582e+05 1.013382e+05 1.013534e+05 1.013277e+05 1.013645e+05 1.013380e+05 1.013489e+05 1.013283e+05 1.013304e+05 1.013193e+05 1.013614e+05 1.013559e+05 1.013426e+05 1.013298e+05 1.013559e+05 1.013430e+05 1.013308e+05 1.013216e+05 1.013300e+05 1.013045e+05 1.013206e+05 1.013419e+05 1.013216e+05 1.013470e+05 1.013308e+05 1.013180e+05 1.013174e+05 1.013184e+05 1.013031e+05 1.013447e+05 1.012945e+05 1.013039e+05 1.013082e+05 1.013066e+05 1.012839e+05 1.013025e+05 1.013283e+05 1.013118e+05 1.013127e+05 1.013386e+05 1.013352e+05 1.013336e+05 1.012789e+05 1.013264e+05 1.012224e+05 1.012725e+05 1.012732e+05 1.012286e+05 1.012941e+05 1.013071e+05 1.012592e+05 1.012433e+05 1.012774e+05 1.012818e+05 1.013037e+05 1.012716e+05 1.011830e+05 1.012465e+05 1.012840e+05 1.013101e+05 1.012703e+05 1.013067e+05 1.011891e+05 1.012868e+05 1.012912e+05 1.013103e+05 1.012891e+05 1.013161e+05 1.012588e+05 1.012210e+05 1.012588e+05 1.012901e+05 1.012107e+05 1.012416e+05 1.012629e+05 1.012064e+05 1.012625e+05 1.012540e+05 1.012426e+05 1.011856e+05 1.012343e+05 1.012983e+05 1.012118e+05 1.012303e+05 1.012564e+05 1.012155e+05 1.012338e+05 1.012873e+05 1.012246e+05 1.012405e+05 1.012487e+05 1.012752e+05 1.011820e+05 1.011543e+05 1.011731e+05 1.012373e+05 1.012516e+05 1.010768e+05 1.011676e+05 1.011380e+05 1.013236e+05 1.012193e+05 1.012421e+05 1.012541e+05 1.012026e+05 1.012221e+05 1.012876e+05 1.011984e+05 1.012079e+05 1.012317e+05 1.011427e+05 1.013261e+05 1.013261e+05 1.013261e+05 1.013275e+05 1.013275e+05 1.013275e+05 1.013278e+05 1.013276e+05 1.013294e+05 1.013284e+05 1.013314e+05 1.013314e+05 1.013314e+05 1.013312e+05 1.013211e+05 1.013211e+05 1.013211e+05 1.013208e+05 1.013217e+05 1.013497e+05 1.013497e+05 1.013497e+05 1.013503e+05 1.013578e+05 1.013578e+05 1.013578e+05 1.013413e+05 1.013250e+05 1.013250e+05 1.013250e+05 1.013201e+05 1.013332e+05 1.013200e+05 1.013067e+05 1.013067e+05 1.013067e+05 1.012927e+05 1.012927e+05 1.013429e+05 1.013429e+05 1.013429e+05 1.013615e+05 1.013319e+05 1.013319e+05 1.013319e+05 1.013108e+05 1.013108e+05 1.013913e+05 1.013913e+05 1.013913e+05 1.012765e+05 1.012765e+05 1.012765e+05 1.013983e+05 1.013212e+05 1.013212e+05 1.013212e+05 1.012718e+05 1.012718e+05 1.012718e+05 1.012535e+05 1.013069e+05 1.013069e+05 1.012236e+05 1.012236e+05 1.013509e+05 1.013509e+05 1.012730e+05 1.013622e+05 1.013622e+05 1.013622e+05 1.015319e+05 1.015319e+05 1.013148e+05 1.013148e+05 1.013148e+05 1.012917e+05 1.012917e+05 1.013236e+05 1.013236e+05 1.013236e+05 1.013226e+05 1.013226e+05 1.013454e+05 1.013454e+05 1.013209e+05 1.013209e+05 1.013209e+05 1.013536e+05 1.014512e+05 1.014512e+05 1.014512e+05 1.012211e+05 1.014032e+05 1.013243e+05 1.013243e+05 1.013243e+05 1.014222e+05 1.014222e+05 1.012889e+05 1.013878e+05 1.010885e+05 1.010885e+05 1.012541e+05 1.012182e+05 1.012182e+05 1.012848e+05 1.013037e+05 1.013448e+05 1.013304e+05 1.013273e+05 1.013273e+05 1.013273e+05 1.013279e+05 1.013231e+05 1.013278e+05 1.013278e+05 1.013278e+05 1.013291e+05 1.013291e+05 1.013209e+05 1.013209e+05 1.013209e+05 1.013207e+05 1.013150e+05 1.013150e+05 1.013150e+05 1.013141e+05 1.013492e+05 1.013527e+05 1.013462e+05 1.013508e+05 1.013508e+05 1.013302e+05 1.013302e+05 1.013302e+05 1.013322e+05 1.013393e+05 1.013393e+05 1.013393e+05 1.013481e+05 1.013481e+05 1.013346e+05 1.013118e+05 1.013118e+05 1.013118e+05 1.013126e+05 1.013153e+05 1.013153e+05 1.013153e+05 1.013111e+05 1.013215e+05 1.013283e+05 1.013283e+05 1.013283e+05 1.013402e+05 1.013025e+05 1.012974e+05 1.013249e+05 1.013249e+05 1.013249e+05 1.013177e+05 1.013265e+05 1.013265e+05 1.013265e+05 1.012761e+05 1.013384e+05 1.013384e+05 1.013384e+05 1.013287e+05 1.013287e+05 1.013266e+05 1.013266e+05 1.013266e+05 1.013001e+05 1.013537e+05 1.013537e+05 1.013537e+05 1.013438e+05 1.012767e+05 1.012767e+05 1.012767e+05 1.013223e+05 1.013515e+05 1.013515e+05 1.012546e+05 1.013648e+05 1.013648e+05 1.013098e+05 1.013098e+05 1.013098e+05 1.013681e+05 1.013681e+05 1.013681e+05 1.013697e+05 1.010725e+05 1.010725e+05 1.010725e+05 1.011148e+05 1.011148e+05 1.016784e+05 1.016784e+05 1.016784e+05 1.015236e+05 1.015236e+05 1.012921e+05 1.013062e+05 1.013062e+05 1.011500e+05 1.012332e+05 1.012332e+05 1.012332e+05 1.011151e+05 1.013172e+05 1.013172e+05 1.012374e+05 1.012374e+05 1.012743e+05 1.012743e+05 1.013834e+05 1.012444e+05 1.012444e+05 1.013394e+05 1.013394e+05 1.012403e+05 1.012403e+05 1.013103e+05 1.013103e+05 1.013103e+05 1.014997e+05 1.012750e+05 1.013479e+05 1.013651e+05 1.013651e+05 1.013651e+05 1.013246e+05 1.012982e+05 1.012982e+05 1.012982e+05 1.013513e+05 1.013513e+05 1.012810e+05 1.012810e+05 1.012810e+05 1.012826e+05 1.012826e+05 1.013529e+05 1.013232e+05 1.013403e+05 1.013403e+05 1.013403e+05 1.013385e+05 1.012643e+05 1.012643e+05 1.012643e+05 1.012704e+05 1.012704e+05 1.013007e+05 1.013362e+05 1.013363e+05 1.013363e+05 1.013363e+05 1.013588e+05 1.013588e+05 1.013090e+05 1.013232e+05 1.013232e+05 1.012969e+05 1.012969e+05 1.012969e+05 1.013015e+05 1.013015e+05 1.013206e+05 1.013206e+05 1.013206e+05 1.013123e+05 1.013123e+05 1.013129e+05 1.013129e