<?xml version="1.0"?>
 <VTKFile type="UnstructuredGrid" version="1.0" byte_order="LittleEndian" header_type="UInt64">
  <UnstructuredGrid>
    <FieldData>
     <DataArray type="Float64" Name="TimeValue" NumberOfTuples="1" format="ascii">
9.72353e-06
     </DataArray>
    </FieldData>
   <Piece NumberOfPoints="3662" NumberOfCells="3444">
    <PointData>
     <DataArray type="Float64" Name="pointP" format="ascii">
1.013652e+05 1.014934e+05 1.013969e+05 1.014038e+05 1.014596e+05 1.014059e+05 1.014399e+05 1.014705e+05 1.014748e+05 1.014550e+05 1.014303e+05 1.014089e+05 1.013594e+05 1.013906e+05 1.014036e+05 1.015016e+05 1.014111e+05 1.013544e+05 1.013535e+05 1.013948e+05 1.013696e+05 1.014305e+05 1.015772e+05 1.013666e+05 1.014955e+05 1.013540e+05 1.013809e+05 1.014001e+05 1.014149e+05 1.014006e+05 1.014012e+05 1.014545e+05 1.013951e+05 1.014287e+05 1.013809e+05 1.013977e+05 1.013987e+05 1.013809e+05 1.013409e+05 1.014403e+05 1.014432e+05 1.014397e+05 1.013513e+05 1.014331e+05 1.013702e+05 1.013764e+05 1.014493e+05 1.014260e+05 1.013742e+05 1.014036e+05 1.013839e+05 1.013626e+05 1.013745e+05 1.013778e+05 1.014058e+05 1.013419e+05 1.013988e+05 1.013745e+05 1.013488e+05 1.013736e+05 1.014713e+05 1.013629e+05 1.013892e+05 1.013460e+05 1.014673e+05 1.013401e+05 1.014363e+05 1.013519e+05 1.013599e+05 1.013119e+05 1.014494e+05 1.013605e+05 1.013493e+05 1.013354e+05 1.013693e+05 1.013527e+05 1.014015e+05 1.014063e+05 1.013522e+05 1.013708e+05 1.013568e+05 1.013244e+05 1.013653e+05 1.013456e+05 1.013532e+05 1.013446e+05 1.013415e+05 1.013430e+05 1.013235e+05 1.013282e+05 1.013252e+05 1.013561e+05 1.013017e+05 1.013689e+05 1.013419e+05 1.012841e+05 1.013823e+05 1.013198e+05 1.013181e+05 1.013322e+05 1.013323e+05 1.013387e+05 1.013136e+05 1.013383e+05 1.012569e+05 1.013686e+05 1.013035e+05 1.013041e+05 1.013004e+05 1.013370e+05 1.013171e+05 1.013258e+05 1.013055e+05 1.012976e+05 1.013079e+05 1.012472e+05 1.013501e+05 1.012926e+05 1.012847e+05 1.012971e+05 1.013067e+05 1.013045e+05 1.013073e+05 1.013073e+05 1.013271e+05 1.013290e+05 1.013299e+05 1.013300e+05 1.013302e+05 1.013305e+05 1.013308e+05 1.013308e+05 1.013309e+05 1.013310e+05 1.013311e+05 1.013311e+05 1.013315e+05 1.013315e+05 1.013320e+05 1.013323e+05 1.013323e+05 1.013327e+05 1.013331e+05 1.013340e+05 1.013340e+05 1.013351e+05 1.013351e+05 1.013359e+05 1.013363e+05 1.013377e+05 1.013382e+05 1.013381e+05 1.013406e+05 1.013416e+05 1.013404e+05 1.013402e+05 1.013450e+05 1.013473e+05 1.013420e+05 1.013519e+05 1.013511e+05 1.013511e+05 1.013395e+05 1.013455e+05 1.013455e+05 1.014042e+05 1.013113e+05 1.013113e+05 1.013317e+05 1.013688e+05 1.013688e+05 1.013388e+05 1.013405e+05 1.013067e+05 1.013067e+05 1.014278e+05 1.013064e+05 1.013458e+05 1.014329e+05 1.012271e+05 1.013269e+05 1.013349e+05 1.013349e+05 1.013349e+05 1.013356e+05 1.013319e+05 1.013319e+05 1.013319e+05 1.013327e+05 1.013327e+05 1.013361e+05 1.013361e+05 1.013361e+05 1.013363e+05 1.013358e+05 1.013258e+05 1.013331e+05 1.013331e+05 1.013327e+05 1.013349e+05 1.013349e+05 1.013349e+05 1.013346e+05 1.013343e+05 1.013581e+05 1.013581e+05 1.013581e+05 1.013434e+05 1.013287e+05 1.013287e+05 1.013287e+05 1.013285e+05 1.013282e+05 1.013282e+05 1.013343e+05 1.013343e+05 1.013322e+05 1.013318e+05 1.013269e+05 1.013269e+05 1.013302e+05 1.013302e+05 1.013302e+05 1.013300e+05 1.013296e+05 1.013296e+05 1.013299e+05 1.013331e+05 1.013331e+05 1.013331e+05 1.013333e+05 1.013328e+05 1.013339e+05 1.013340e+05 1.013299e+05 1.013299e+05 1.013299e+05 1.013291e+05 1.013235e+05 1.013219e+05 1.013191e+05 1.013219e+05 1.013445e+05 1.013445e+05 1.013445e+05 1.013497e+05 1.013497e+05 1.013497e+05 1.013468e+05 1.013246e+05 1.013159e+05 1.013246e+05 1.013246e+05 1.013346e+05 1.013346e+05 1.013346e+05 1.013408e+05 1.013454e+05 1.013454e+05 1.013454e+05 1.013475e+05 1.013670e+05 1.013670e+05 1.013670e+05 1.013494e+05 1.013494e+05 1.013270e+05 1.013270e+05 1.013270e+05 1.012858e+05 1.013272e+05 1.013272e+05 1.013272e+05 1.013101e+05 1.013101e+05 1.013650e+05 1.013650e+05 1.013650e+05 1.013722e+05 1.013542e+05 1.013542e+05 1.013542e+05 1.013587e+05 1.013587e+05 1.013197e+05 1.013117e+05 1.014013e+05 1.014013e+05 1.014013e+05 1.013215e+05 1.013471e+05 1.013471e+05 1.013471e+05 1.013687e+05 1.013687e+05 1.012283e+05 1.012283e+05 1.012283e+05 1.013042e+05 1.012695e+05 1.012695e+05 1.012695e+05 1.014184e+05 1.012976e+05 1.014691e+05 1.014691e+05 1.014691e+05 1.012430e+05 1.012430e+05 1.012430e+05 1.012376e+05 1.013449e+05 1.013449e+05 1.013449e+05 1.013317e+05 1.013198e+05 1.013891e+05 1.013891e+05 1.013891e+05 1.012406e+05 1.013074e+05 1.013074e+05 1.013074e+05 1.013221e+05 1.013221e+05 1.013117e+05 1.013117e+05 1.013197e+05 1.013961e+05 1.013961e+05 1.013961e+05 1.013669e+05 1.013669e+05 1.013133e+05 1.013082e+05 1.013082e+05 1.013689e+05 1.013689e+05 1.013689e+05 1.013685e+05 1.013685e+05 1.013411e+05 1.013411e+05 1.013411e+05 1.013561e+05 1.013209e+05 1.013203e+05 1.013209e+05 1.013209e+05 1.013199e+05 1.013331e+05 1.013331e+05 1.013331e+05 1.013330e+05 1.013342e+05 1.013352e+05 1.013352e+05 1.013282e+05 1.013282e+05 1.013271e+05 1.013271e+05 1.013366e+05 1.013366e+05 1.013366e+05 1.013376e+05 1.013376e+05 1.013276e+05 1.013276e+05 1.013276e+05 1.013276e+05 1.013271e+05 1.013312e+05 1.013299e+05 1.013424e+05 1.013424e+05 1.013424e+05 1.013418e+05 1.013457e+05 1.013457e+05 1.013457e+05 1.013449e+05 1.013371e+05 1.013371e+05 1.013371e+05 1.013527e+05 1.013527e+05 1.013527e+05 1.013231e+05 1.013231e+05 1.013231e+05 1.013522e+05 1.013522e+05 1.013522e+05 1.012984e+05 1.012984e+05 1.012984e+05 1.013418e+05 1.012947e+05 1.013358e+05 1.013358e+05 1.013358e+05 1.013174e+05 1.013174e+05 1.013233e+05 1.013415e+05 1.013415e+05 1.013415e+05 1.013385e+05 1.013453e+05 1.013453e+05 1.013453e+05 1.013244e+05 1.013244e+05 1.013244e+05 1.013592e+05 1.013592e+05 1.013592e+05 1.013495e+05 1.013106e+05 1.013106e+05 1.013106e+05 1.013252e+05 1.013073e+05 1.013073e+05 1.013073e+05 1.013329e+05 1.013370e+05 1.013370e+05 1.013370e+05 1.013460e+05 1.013460e+05 1.013460e+05 1.013466e+05 1.013447e+05 1.013447e+05 1.013447e+05 1.013252e+05 1.013516e+05 1.013516e+05 1.013516e+05 1.013468e+05 1.013438e+05 1.013438e+05 1.013438e+05 1.013273e+05 1.013738e+05 1.013738e+05 1.013738e+05 1.013692e+05 1.013692e+05 1.013692e+05 1.013955e+05 1.014441e+05 1.014441e+05 1.014441e+05 1.011927e+05 1.012083e+05 1.012083e+05 1.014711e+05 1.013423e+05 1.013423e+05 1.012515e+05 1.013074e+05 1.013074e+05 1.013930e+05 1.013617e+05 1.013617e+05 1.013617e+05 1.013231e+05 1.013585e+05 1.013585e+05 1.013585e+05 1.013545e+05 1.013545e+05 1.015615e+05 1.012449e+05 1.012449e+05 1.012080e+05 1.013275e+05 1.014420e+05 1.014104e+05 1.014181e+05 1.014181e+05 1.014116e+05 1.013437e+05 1.013437e+05 1.013437e+05 1.013425e+05 1.013039e+05 1.013039e+05 1.015363e+05 1.015363e+05 1.015363e+05 1.014356e+05 1.014356e+05 1.014356e+05 1.014037e+05 1.014037e+05 1.013645e+05 1.013645e+05 1.013645e+05 1.013760e+05 1.013773e+05 1.013773e+05 1.013773e+05 1.013475e+05 1.013475e+05 1.012783e+05 1.012783e+05 1.012783e+05 1.012502e+05 1.012502e+05 1.012908e+05 1.012908e+05 1.013312e+05 1.013312e+05 1.013579e+05 1.013579e+05 1.013579e+05 1.013592e+05 1.013592e+05 1.013592e+05 1.013803e+05 1.012871e+05 1.012871e+05 1.012871e+05 1.012856e+05 1.012856e+05 1.012869e+05 1.012869e+05 1.012869e+05 1.013178e+05 1.013178e+05 1.013250e+05 1.013250e+05 1.013250e+05 1.013189e+05 1.013189e+05 1.013454e+05 1.013454e+05 1.013454e+05 1.013413e+05 1.013413e+05 1.013387e+05 1.013387e+05 1.013387e+05 1.013398e+05 1.013486e+05 1.013486e+05 1.013535e+05 1.013535e+05 1.013535e+05 1.013511e+05 1.013511e+05 1.013242e+05 1.013242e+05 1.013242e+05 1.013298e+05 1.013298e+05 1.013350e+05 1.013350e+05 1.013350e+05 1.013354e+05 1.013354e+05 1.013300e+05 1.013300e+05 1.013315e+05 1.013315e+05 1.013384e+05 1.013384e+05 1.013417e+05 1.013417e+05 1.013320e+05 1.013297e+05 1.013297e+05 1.013374e+05 1.013374e+05 1.013374e+05 1.013379e+05 1.013379e+05 1.013356e+05 1.013356e+05 1.013284e+05 1.013284e+05 1.013284e+05 1.013287e+05 1.013338e+05 1.013247e+05 1.013245e+05 1.013307e+05 1.013307e+05 1.013307e+05 1.013306e+05 1.013306e+05 1.013269e+05 1.013269e+05 1.013244e+05 1.013215e+05 1.013235e+05 1.013587e+05 1.013587e+05 1.013587e+05 1.013478e+05 1.013558e+05 1.013558e+05 1.013495e+05 1.013745e+05 1.013745e+05 1.013745e+05 1.013413e+05 1.013413e+05 1.013413e+05 1.012841e+05 1.013483e+05 1.013702e+05 1.013702e+05 1.013702e+05 1.014015e+05 1.013757e+05 1.013648e+05 1.013648e+05 1.012891e+05 1.012891e+05 1.014363e+05 1.011623e+05 1.011623e+05 1.011623e+05 1.012829e+05 1.012829e+05 1.012829e+05 1.011498e+05 1.013969e+05 1.016044e+05 1.016044e+05 1.015440e+05 1.015440e+05 1.015440e+05 1.012895e+05 1.012955e+05 1.012955e+05 1.013501e+05 1.012841e+05 1.012935e+05 1.012935e+05 1.014469e+05 1.014469e+05 1.013309e+05 1.013309e+05 1.013083e+05 1.013083e+05 1.013083e+05 1.011441e+05 1.011441e+05 1.013865e+05 1.014476e+05 1.014476e+05 1.012569e+05 1.014234e+05 1.012985e+05 1.012999e+05 1.012999e+05 1.013029e+05 1.013586e+05 1.013586e+05 1.013586e+05 1.013334e+05 1.013626e+05 1.013624e+05 1.014038e+05 1.013186e+05 1.015311e+05 1.015311e+05 1.013182e+05 1.013182e+05 1.013182e+05 1.012754e+05 1.012060e+05 1.012060e+05 1.013331e+05 1.013331e+05 1.013976e+05 1.013144e+05 1.013144e+05 1.015029e+05 1.012275e+05 1.012275e+05 1.012275e+05 1.013258e+05 1.014705e+05 1.011691e+05 1.013968e+05 1.013968e+05 1.013968e+05 1.013030e+05 1.013090e+05 1.013090e+05 1.013360e+05 1.013834e+05 1.013834e+05 1.013067e+05 1.012132e+05 1.012132e+05 1.012468e+05 1.012468e+05 1.011994e+05 1.013409e+05 1.013292e+05 1.013817e+05 1.014975e+05 1.014975e+05 1.012353e+05 1.014335e+05 1.014184e+05 1.014184e+05 1.011811e+05 1.011811e+05 1.012935e+05 1.012935e+05 1.017403e+05 1.017403e+05 1.012172e+05 1.012327e+05 1.015696e+05 1.015696e+05 1.014312e+05 1.012810e+05 1.012810e+05 1.012810e+05 1.017108e+05 1.017108e+05 1.013479e+05 1.012233e+05 1.012233e+05 1.013414e+05 1.014493e+05 1.013934e+05 1.012487e+05 1.013045e+05 1.013067e+05 1.013448e+05 1.012630e+05 1.013289e+05 1.013289e+05 1.013289e+05 1.013155e+05 1.013096e+05 1.013951e+05 1.012866e+05 1.012866e+05 1.014260e+05 1.014278e+05 1.013294e+05 1.013294e+05 1.013809e+05 1.013809e+05 1.012746e+05 1.012746e+05 1.013566e+05 1.013106e+05 1.013106e+05 1.013117e+05 1.013310e+05 1.012936e+05 1.012979e+05 1.014791e+05 1.014791e+05 1.012857e+05 1.012857e+05 1.013274e+05 1.013472e+05 1.012850e+05 1.013471e+05 1.013674e+05 1.013090e+05 1.014816e+05 1.013357e+05 1.013135e+05 1.013361e+05 1.013555e+05 1.013605e+05 1.013142e+05 1.012355e+05 1.012355e+05 1.012794e+05 1.013618e+05 1.012079e+05 1.013404e+05 1.013801e+05 1.013801e+05 1.013085e+05 1.013085e+05 1.013085e+05 1.013154e+05 1.012624e+05 1.013033e+05 1.013963e+05 1.013530e+05 1.013230e+05 1.013230e+05 1.013230e+05 1.013896e+05 1.013896e+05 1.013896e+05 1.014185e+05 1.011783e+05 1.013722e+05 1.013389e+05 1.012656e+05 1.012656e+05 1.012656e+05 1.013777e+05 1.013777e+05 1.013777e+05 1.013839e+05 1.013281e+05 1.013281e+05 1.013149e+05 1.012528e+05 1.014039e+05 1.013363e+05 1.013381e+05 1.013598e+05 1.013598e+05 1.012787e+05 1.012965e+05 1.012965e+05 1.012836e+05 1.012836e+05 1.013288e+05 1.013424e+05 1.013369e+05 1.012600e+05 1.013718e+05 1.013508e+05 1.013508e+05 1.013420e+05 1.013420e+05 1.013772e+05 1.012322e+05 1.014554e+05 1.013654e+05 1.013654e+05 1.013336e+05 1.013336e+05 1.013390e+05 1.013214e+05 1.013214e+05 1.013214e+05 1.013116e+05 1.013399e+05 1.013214e+05 1.013214e+05 1.013214e+05 1.013110e+05 1.013110e+05 1.013471e+05 1.013575e+05 1.013358e+05 1.013358e+05 1.013057e+05 1.013827e+05 1.013422e+05 1.013111e+05 1.013111e+05 1.013598e+05 1.014311e+05 1.013791e+05 1.013732e+05 1.013732e+05 1.013732e+05 1.013501e+05 1.013976e+05 1.013976e+05 1.013683e+05 1.013953e+05 1.013652e+05 1.013652e+05 1.013167e+05 1.013167e+05 1.013167e+05 1.012520e+05 1.013073e+05 1.013450e+05 1.013333e+05 1.013333e+05 1.014415e+05 1.013904e+05 1.013904e+05 1.013821e+05 1.013845e+05 1.013536e+05 1.013536e+05 1.013673e+05 1.013673e+05 1.013376e+05 1.013503e+05 1.013503e+05 1.013032e+05 1.013284e+05 1.013284e+05 1.013368e+05 1.013698e+05 1.013527e+05 1.013881e+05 1.013446e+05 1.013446e+05 1.013446e+05 1.012725e+05 1.013669e+05 1.013601e+05 1.013510e+05 1.013510e+05 1.013663e+05 1.013663e+05 1.013663e+05 1.013971e+05 1.013971e+05 1.013971e+05 1.013493e+05 1.013175e+05 1.013429e+05 1.013429e+05 1.013429e+05 1.012966e+05 1.013349e+05 1.013564e+05 1.013163e+05 1.013237e+05 1.013697e+05 1.013697e+05 1.013660e+05 1.013190e+05 1.013861e+05 1.013592e+05 1.013592e+05 1.012928e+05 1.014036e+05 1.014036e+05 1.013375e+05 1.013940e+05 1.013710e+05 1.013944e+05 1.013944e+05 1.013005e+05 1.013082e+05 1.013082e+05 1.013322e+05 1.013322e+05 1.013908e+05 1.013908e+05 1.013439e+05 1.013439e+05 1.013636e+05 1.013543e+05 1.013383e+05 1.013475e+05 1.013475e+05 1.013273e+05 1.013439e+05 1.013907e+05 1.013461e+05 1.013335e+05 1.013335e+05 1.013409e+05 1.013237e+05 1.013732e+05 1.013405e+05 1.013459e+05 1.013459e+05 1.013448e+05 1.013475e+05 1.013475e+05 1.013670e+05 1.013446e+05 1.013446e+05 1.013446e+05 1.013254e+05 1.013616e+05 1.012852e+05 1.012852e+05 1.013578e+05 1.013798e+05 1.013798e+05 1.013163e+05 1.013630e+05 1.013630e+05 1.013630e+05 1.013344e+05 1.013474e+05 1.013588e+05 1.013593e+05 1.013316e+05 1.013520e+05 1.013721e+05 1.013721e+05 1.013083e+05 1.013181e+05 1.013181e+05 1.013191e+05 1.013265e+05 1.013250e+05 1.013142e+05 1.013142e+05 1.013663e+05 1.013663e+05 1.013663e+05 1.013911e+05 1.013530e+05 1.013530e+05 1.013310e+05 1.013264e+05 1.013405e+05 1.012872e+05 1.012872e+05 1.013267e+05 1.013267e+05 1.013291e+05 1.013587e+05 1.013587e+05 1.013220e+05 1.013595e+05 1.013445e+05 1.013445e+05 1.013416e+05 1.013416e+05 1.013633e+05 1.013633e+05 1.013297e+05 1.013156e+05 1.013504e+05 1.013574e+05 1.013367e+05 1.013367e+05 1.013597e+05 1.013651e+05 1.013651e+05 1.013282e+05 1.013282e+05 1.013087e+05 1.013244e+05 1.013110e+05 1.013036e+05 1.013376e+05 1.013385e+05 1.013296e+05 1.013157e+05 1.013157e+05 1.013157e+05 1.013338e+05 1.013338e+05 1.013568e+05 1.013266e+05 1.013266e+05 1.013266e+05 1.013491e+05 1.013491e+05 1.013551e+05 1.013551e+05 1.013429e+05 1.013443e+05 1.013579e+05 1.013449e+05 1.013593e+05 1.013593e+05 1.013525e+05 1.013346e+05 1.013636e+05 1.013636e+05 1.013384e+05 1.013333e+05 1.013333e+05 1.013333e+05 1.013117e+05 1.013430e+05 1.013117e+05 1.013034e+05 1.013004e+05 1.013648e+05 1.013581e+05 1.013762e+05 1.013392e+05 1.013239e+05 1.013405e+05 1.013405e+05 1.013405e+05 1.013731e+05 1.013322e+05 1.013624e+05 1.013724e+05 1.013553e+05 1.013381e+05 1.013381e+05 1.013381e+05 1.013374e+05 1.013374e+05 1.013374e+05 1.013523e+05 1.013523e+05 1.013711e+05 1.013723e+05 1.013723e+05 1.013723e+05 1.013320e+05 1.013512e+05 1.013512e+05 1.013512e+05 1.013471e+05 1.013518e+05 1.013518e+05 1.013518e+05 1.013168e+05 1.013168e+05 1.013168e+05 1.013250e+05 1.013360e+05 1.013531e+05 1.013531e+05 1.013238e+05 1.013570e+05 1.013504e+05 1.013371e+05 1.013371e+05 1.013371e+05 1.013373e+05 1.013541e+05 1.013642e+05 1.013379e+05 1.013097e+05 1.013330e+05 1.013155e+05 1.013738e+05 1.013738e+05 1.013663e+05 1.013711e+05 1.013473e+05 1.013384e+05 1.013565e+05 1.013350e+05 1.013350e+05 1.013397e+05 1.013272e+05 1.013390e+05 1.013390e+05 1.013345e+05 1.013373e+05 1.013135e+05 1.013135e+05 1.013518e+05 1.013518e+05 1.013495e+05 1.013517e+05 1.013552e+05 1.013520e+05 1.013359e+05 1.013343e+05 1.013531e+05 1.013542e+05 1.013815e+05 1.013128e+05 1.013305e+05 1.013305e+05 1.013305e+05 1.013672e+05 1.013672e+05 1.013354e+05 1.013354e+05 1.013528e+05 1.013457e+05 1.013480e+05 1.013467e+05 1.013467e+05 1.013338e+05 1.013338e+05 1.013370e+05 1.013315e+05 1.013315e+05 1.013399e+05 1.013187e+05 1.013344e+05 1.013329e+05 1.013336e+05 1.013327e+05 1.013335e+05 1.013522e+05 1.013448e+05 1.013448e+05 1.013448e+05 1.013461e+05 1.013537e+05 1.013581e+05 1.013430e+05 1.013546e+05 1.013428e+05 1.013428e+05 1.013450e+05 1.013423e+05 1.013423e+05 1.013393e+05 1.013393e+05 1.013383e+05 1.013405e+05 1.013208e+05 1.013183e+05 1.013400e+05 1.013286e+05 1.013423e+05 1.013423e+05 1.013334e+05 1.013334e+05 1.013334e+05 1.013370e+05 1.013522e+05 1.013523e+05 1.013385e+05 1.013173e+05 1.013319e+05 1.013426e+05 1.013340e+05 1.013340e+05 1.013458e+05 1.013458e+05 1.013261e+05 1.013261e+05 1.013422e+05 1.013550e+05 1.013555e+05 1.013555e+05 1.013544e+05 1.013186e+05 1.013376e+05 1.013533e+05 1.013325e+05 1.013325e+05 1.013349e+05 1.013370e+05 1.013375e+05 1.013452e+05 1.013452e+05 1.013342e+05 1.013342e+05 1.013315e+05 1.013269e+05 1.013269e+05 1.013361e+05 1.013449e+05 1.013236e+05 1.013380e+05 1.013425e+05 1.013480e+05 1.013194e+05 1.013305e+05 1.013417e+05 1.013417e+05 1.013447e+05 1.013223e+05 1.013199e+05 1.013247e+05 1.013247e+05 1.013247e+05 1.013261e+05 1.013354e+05 1.013354e+05 1.013437e+05 1.013437e+05 1.013417e+05 1.013417e+05 1.013362e+05 1.013250e+05 1.013226e+05 1.013399e+05 1.013399e+05 1.013399e+05 1.013379e+05 1.013325e+05 1.013325e+05 1.013392e+05 1.013392e+05 1.013353e+05 1.013353e+05 1.013358e+05 1.013212e+05 1.013212e+05 1.013212e+05 1.013196e+05 1.013344e+05 1.013328e+05 1.013328e+05 1.013229e+05 1.013290e+05 1.013219e+05 1.013219e+05 1.013230e+05 1.013230e+05 1.013329e+05 1.013412e+05 1.013290e+05 1.013299e+05 1.013329e+05 1.013274e+05 1.013274e+05 1.013367e+05 1.013367e+05 1.013396e+05 1.013250e+05 1.013250e+05 1.013229e+05 1.013387e+05 1.013387e+05 1.013375e+05 1.013256e+05 1.013241e+05 1.013241e+05 1.013241e+05 1.013229e+05 1.013359e+05 1.013235e+05 1.013264e+05 1.013318e+05 1.013235e+05 1.013276e+05 1.013251e+05 1.013251e+05 1.013305e+05 1.013302e+05 1.013268e+05 1.013264e+05 1.013300e+05 1.013300e+05 1.013300e+05 1.013265e+05 1.013310e+05 1.013310e+05 1.013310e+05 1.013294e+05 1.013294e+05 1.013286e+05 1.013272e+05 1.013299e+05 1.013280e+05 1.013276e+05 1.013294e+05 1.013283e+05 1.013289e+05 1.013300e+05 1.013300e+05 1.013271e+05 1.013271e+05 1.013277e+05 1.013301e+05 1.013301e+05 1.013301e+05 1.013304e+05 1.013304e+05 1.013293e+05 1.013293e+05 1.013293e+05 1.013474e+05 1.013509e+05 1.013509e+05 1.013509e+05 1.013258e+05 1.013258e+05 1.013421e+05 1.013421e+05 1.013421e+05 1.013483e+05 1.013483e+05 1.013275e+05 1.013265e+05 1.013460e+05 1.013460e+05 1.013439e+05 1.013258e+05 1.013449e+05 1.013454e+05 1.013469e+05 1.013247e+05 1.013262e+05 1.013265e+05 1.013310e+05 1.013310e+05 1.013312e+05 1.013581e+05 1.013379e+05 1.013379e+05 1.013379e+05 1.013364e+05 1.013419e+05 1.013419e+05 1.013419e+05 1.013433e+05 1.013428e+05 1.013428e+05 1.013613e+05 1.013380e+05 1.013380e+05 1.013380e+05 1.013401e+05 1.013327e+05 1.013133e+05 1.013133e+05 1.013133e+05 1.013421e+05 1.013753e+05 1.013753e+05 1.013507e+05 1.013507e+05 1.013507e+05 1.013392e+05 1.013392e+05 1.013392e+05 1.013437e+05 1.013413e+05 1.013413e+05 1.013393e+05 1.013453e+05 1.013379e+05 1.013406e+05 1.013412e+05 1.013390e+05 1.013372e+05 1.013356e+05 1.013388e+05 1.013348e+05 1.013336e+05 1.013348e+05 1.013348e+05 1.013332e+05 1.013332e+05 1.013332e+05 1.013308e+05 1.013800e+05 1.013435e+05 1.013435e+05 1.013400e+05 1.013406e+05 1.013374e+05 1.013374e+05 1.013502e+05 1.013502e+05 1.013537e+05 1.013537e+05 1.013447e+05 1.013430e+05 1.013379e+05 1.013363e+05 1.013333e+05 1.013333e+05 1.013310e+05 1.013318e+05 1.013610e+05 1.013610e+05 1.013371e+05 1.013337e+05 1.013337e+05 1.013351e+05 1.013338e+05 1.013330e+05 1.013320e+05 1.013320e+05 1.013320e+05 1.013322e+05 1.013322e+05 1.013318e+05 1.013316e+05 1.013316e+05 1.013316e+05 1.013334e+05 1.013334e+05 1.013265e+05 1.013312e+05 1.013312e+05 1.013314e+05 1.013311e+05 1.013311e+05 1.013269e+05 1.013278e+05 1.013269e+05 1.013310e+05 1.013310e+05 1.013310e+05 1.013308e+05 1.013318e+05 1.013290e+05 1.013309e+05 1.013459e+05 1.013304e+05 1.013299e+05 1.013306e+05 1.013305e+05 1.013468e+05 1.013548e+05 1.013548e+05 1.013478e+05 1.013478e+05 1.013330e+05 1.013330e+05 1.013330e+05 1.013117e+05 1.013553e+05 1.013553e+05 1.013553e+05 1.013124e+05 1.013309e+05 1.013312e+05 1.013312e+05 1.013312e+05 1.013315e+05 1.013320e+05 1.013323e+05 1.013364e+05 1.013319e+05 1.013324e+05 1.013326e+05 1.013325e+05 1.013331e+05 1.013329e+05 1.013323e+05 1.013313e+05 1.013319e+05 1.013314e+05 1.013314e+05 1.013310e+05 1.013310e+05 1.013319e+05 1.013314e+05 1.013309e+05 1.013308e+05 1.013462e+05 1.013536e+05 1.013629e+05 1.013991e+05 1.013652e+05 1.014574e+05 1.014088e+05 1.013885e+05 1.014313e+05 1.014489e+05 1.014687e+05 1.015029e+05 1.015022e+05 1.014756e+05 1.014139e+05 1.013290e+05 1.013290e+05 1.013300e+05 1.013300e+05 1.013302e+05 1.013305e+05 1.013308e+05 1.013308e+05 1.013308e+05 1.013308e+05 1.013305e+05 1.013305e+05 1.013299e+05 1.013299e+05 1.013299e+05 1.013331e+05 1.013331e+05 1.013331e+05 1.013334e+05 1.013334e+05 1.013297e+05 1.013297e+05 1.013297e+05 1.013300e+05 1.013290e+05 1.013290e+05 1.013290e+05 1.013308e+05 1.013316e+05 1.013316e+05 1.013931e+05 1.013931e+05 1.013931e+05 1.015413e+05 1.015413e+05 1.013299e+05 1.013304e+05 1.013304e+05 1.011764e+05 1.011764e+05 1.013746e+05 1.013578e+05 1.013578e+05 1.013578e+05 1.013453e+05 1.013453e+05 1.013453e+05 1.013427e+05 1.013427e+05 1.013311e+05 1.013700e+05 1.013700e+05 1.013700e+05 1.013408e+05 1.013801e+05 1.013801e+05 1.013801e+05 1.013249e+05 1.013640e+05 1.013185e+05 1.013185e+05 1.013185e+05 1.014751e+05 1.011290e+05 1.011290e+05 1.011290e+05 1.015953e+05 1.013459e+05 1.013465e+05 1.013459e+05 1.013459e+05 1.013338e+05 1.013338e+05 1.013288e+05 1.013544e+05 1.013544e+05 1.011079e+05 1.014756e+05 1.015470e+05 1.015470e+05 1.015953e+05 1.013458e+05 1.013064e+05 1.013893e+05 1.013631e+05 1.013577e+05 1.013577e+05 1.013315e+05 1.013622e+05 1.013187e+05 1.013315e+05 1.013578e+05 1.013373e+05 1.013373e+05 1.013495e+05 1.013495e+05 1.013335e+05 1.013537e+05 1.013543e+05 1.013589e+05 1.013589e+05 1.013525e+05 1.013804e+05 1.013587e+05 1.013642e+05 1.013642e+05 1.013465e+05 1.013487e+05 1.013487e+05 1.013480e+05 1.013480e+05 1.013430e+05 1.013461e+05 1.013416e+05 1.013323e+05 1.013288e+05 1.013288e+05 1.013314e+05 1.013314e+05 1.013314e+05 1.013313e+05 1.013303e+05 1.013317e+05 1.013317e+05 1.013317e+05 1.013316e+05 1.013326e+05 1.013326e+05 1.013326e+05 1.013325e+05 1.013323e+05 1.013356e+05 1.013356e+05 1.013356e+05 1.013360e+05 1.013395e+05 1.013395e+05 1.013395e+05 1.013392e+05 1.013384e+05 1.013361e+05 1.013361e+05 1.013360e+05 1.013436e+05 1.013436e+05 1.013436e+05 1.013473e+05 1.013473e+05 1.013435e+05 1.013435e+05 1.013435e+05 1.013335e+05 1.013335e+05 1.013418e+05 1.013418e+05 1.013418e+05 1.013413e+05 1.013413e+05 1.013519e+05 1.013519e+05 1.013519e+05 1.013463e+05 1.013463e+05 1.013463e+05 1.013404e+05 1.013404e+05 1.013404e+05 1.013324e+05 1.013464e+05 1.013453e+05 1.013408e+05 1.013404e+05 1.013460e+05 1.013476e+05 1.013476e+05 1.013394e+05 1.013394e+05 1.013417e+05 1.013401e+05 1.013445e+05 1.013445e+05 1.013445e+05 1.013536e+05 1.013544e+05 1.013417e+05 1.013376e+05 1.013376e+05 1.013376e+05 1.013450e+05 1.013405e+05 1.013378e+05 1.013365e+05 1.013352e+05 1.013388e+05 1.013350e+05 1.013347e+05 1.013345e+05 1.013345e+05 1.013308e+05 1.013317e+05 1.013317e+05 1.013485e+05 1.013377e+05 1.013377e+05 1.013439e+05 1.013442e+05 1.013360e+05 1.013360e+05 1.013337e+05 1.013337e+05 1.013337e+05 1.013425e+05 1.013473e+05 1.013341e+05 1.013357e+05 1.013339e+05 1.013331e+05 1.013330e+05 1.013330e+05 1.013330e+05 1.013323e+05 1.013323e+05 1.013326e+05 1.013325e+05 1.013325e+05 1.013320e+05 1.013319e+05 1.013311e+05 1.013316e+05 1.013316e+05 1.013307e+05 1.013309e+05 1.013468e+05 1.013506e+05 1.013506e+05 1.013409e+05 1.013409e+05 1.013520e+05 1.013303e+05 1.013382e+05 1.013460e+05 1.013511e+05 1.013479e+05 1.013461e+05 1.013461e+05 1.013458e+05 1.013458e+05 1.013458e+05 1.013469e+05 1.013761e+05 1.013688e+05 1.013388e+05 1.013388e+05 1.013674e+05 1.013004e+05 1.013340e+05 1.013351e+05 1.013523e+05 1.013405e+05 1.013359e+05 1.013359e+05 1.013337e+05 1.013331e+05 1.013342e+05 1.013332e+05 1.013320e+05 1.013348e+05 1.013321e+05 1.013321e+05 1.013318e+05 1.013318e+05 1.013311e+05 1.013311e+05 1.013311e+05 1.013310e+05 1.013313e+05 1.013314e+05 1.013494e+05 1.013503e+05 1.013498e+05 1.013571e+05 1.013526e+05 1.013676e+05 1.013507e+05 1.013490e+05 1.013527e+05 1.013309e+05 1.013300e+05 1.013652e+05 1.014934e+05 1.013969e+05 1.014038e+05 1.014596e+05 1.014059e+05 1.014399e+05 1.014705e+05 1.014748e+05 1.014550e+05 1.014303e+05 1.014089e+05 1.013594e+05 1.013906e+05 1.014036e+05 1.015016e+05 1.014111e+05 1.013544e+05 1.013535e+05 1.013948e+05 1.013696e+05 1.014305e+05 1.015772e+05 1.013666e+05 1.014955e+05 1.013540e+05 1.013809e+05 1.014001e+05 1.014149e+05 1.014006e+05 1.014012e+05 1.014545e+05 1.013951e+05 1.014287e+05 1.013809e+05 1.013977e+05 1.013987e+05 1.013809e+05 1.013409e+05 1.014403e+05 1.014432e+05 1.014397e+05 1.013513e+05 1.014331e+05 1.013702e+05 1.013764e+05 1.014493e+05 1.014260e+05 1.013742e+05 1.014036e+05 1.013839e+05 1.013626e+05 1.013745e+05 1.013778e+05 1.014058e+05 1.013419e+05 1.013988e+05 1.013745e+05 1.013488e+05 1.013736e+05 1.014713e+05 1.013629e+05 1.013892e+05 1.013460e+05 1.014673e+05 1.013401e+05 1.014363e+05 1.013519e+05 1.013599e+05 1.013119e+05 1.014494e+05 1.013605e+05 1.013493e+05 1.013354e+05 1.013693e+05 1.013527e+05 1.014015e+05 1.014063e+05 1.013522e+05 1.013708e+05 1.013568e+05 1.013244e+05 1.013653e+05 1.013456e+05 1.013532e+05 1.013446e+05 1.013415e+05 1.013430e+05 1.013235e+05 1.013282e+05 1.013252e+05 1.013561e+05 1.013017e+05 1.013689e+05 1.013419e+05 1.012841e+05 1.013823e+05 1.013198e+05 1.013181e+05 1.013322e+05 1.013323e+05 1.013387e+05 1.013136e+05 1.013383e+05 1.012569e+05 1.013686e+05 1.013035e+05 1.013041e+05 1.013004e+05 1.013370e+05 1.013171e+05 1.013258e+05 1.013055e+05 1.012976e+05 1.013079e+05 1.012472e+05 1.013501e+05 1.012926e+05 1.012847e+05 1.012971e+05 1.013067e+05 1.013045e+05 1.013073e+05 1.013073e+05 1.013271e+05 1.013271e+05 1.013297e+05 1.013300e+05 1.013302e+05 1.013305e+05 1.013308e+05 1.013308e+05 1.013309e+05 1.013310e+05 1.013311e+05 1.013311e+05 1.013315e+05 1.013315e+05 1.013320e+05 1.013323e+05 1.013323e+05 1.013327e+05 1.013331e+05 1.013340e+05 1.013340e+05 1.013351e+05 1.013351e+05 1.013359e+05 1.013363e+05 1.013377e+05 1.013382e+05 1.013381e+05 1.013406e+05 1.013416e+05 1.013404e+05 1.013402e+05 1.013450e+05 1.013473e+05 1.013420e+05 1.013519e+05 1.013511e+05 1.013511e+05 1.013395e+05 1.013455e+05 1.013455e+05 1.014042e+05 1.013113e+05 1.013113e+05 1.013317e+05 1.013688e+05 1.013688e+05 1.013388e+05 1.013405e+05 1.013067e+05 1.013067e+05 1.014278e+05 1.013064e+05 1.013458e+05 1.014329e+05 1.012271e+05 1.013269e+05 1.013349e+05 1.013349e+05 1.013349e+05 1.013356e+05 1.013319e+05 1.013319e+05 1.013319e+05 1.013327e+05 1.013327e+05 1.013361e+05 1.013361e+05 1.013361e+05 1.013363e+05 1.013358e+05 1.013258e+05 1.013331e+05 1.013331e+05 1.013327e+05 1.013349e+05 1.013349e+05 1.013349e+05 1.013346e+05 1.013343e+05 1.013581e+05 1.013581e+05 1.013581e+05 1.013434e+05 1.013287e+05 1.013287e+05 1.013287e+05 1.013285e+05 1.013282e+05 1.013282e+05 1.013343e+05 1.013343e+05 1.013322e+05 1.013318e+05 1.013269e+05 1.013269e+05 1.013302e+05 1.013302e+05 1.013302e+05 1.013300e+05 1.013296e+05 1.013296e+05 1.013299e+05 1.013331e+05 1.013331e+05 1.013331e+05 1.013333e+05 1.013328e+05 1.013339e+05 1.013340e+05 1.013299e+05 1.013299e+05 1.013299e+05 1.013291e+05 1.013235e+05 1.013219e+05 1.013191e+05 1.013219e+05 1.013445e+05 1.013445e+05 1.013445e+05 1.013497e+05 1.013497e+05 1.013497e+05 1.013468e+05 1.013246e+05 1.013159e+05 1.013246e+05 1.013246e+05 1.013346e+05 1.013346e+05 1.013346e+05 1.013408e+05 1.013454e+05 1.013454e+05 1.013454e+05 1.013475e+05 1.013670e+05 1.013670e+05 1.013670e+05 1.013494e+05 1.013494e+05 1.013270e+05 1.013270e+05 1.013270e+05 1.012858e+05 1.013272e+05 1.013272e+05 1.013272e+05 1.013101e+05 1.013101e+05 1.013650e+05 1.013650e+05 1.013650e+05 1.013722e+05 1.013542e+05 1.013542e+05 1.013542e+05 1.013587e+05 1.013587e+05 1.013197e+05 1.013117e+05 1.014013e+05 1.014013e+05 1.014013e+05 1.013215e+05 1.013471e+05 1.013471e+05 1.013471e+05 1.013687e+05 1.013687e+05 1.012283e+05 1.012283e+05 1.012283e+05 1.013042e+05 1.012695e+05 1.012695e+05 1.012695e+05 1.014184e+05 1.012976e+05 1.014691e+05 1.014691e+05 1.014691e+05 1.012430e+05 1.012430e+05 1.012430e+05 1.012376e+05 1.013449e+05 1.013449e+05 1.013449e+05 1.013317e+05 1.013198e+05 1.013891e+05 1.013891e+05 1.013891e+05 1.012406e+05 1.013074e+05 1.013074e+05 1.013074e+05 1.013221e+05 1.013221e+05 1.013117e+05 1.013117e+05 1.013197e+05 1.013961e+05 1.013961e+05 1.013961e+05 1.013669e+05 1.013669e+05 1.013133e+05 1.013082e+05 1.013082e+05 1.013689e+05 1.013689e+05 1.013689e+05 1.013685e+05 1.013685e+05 1.013411e+05 1.013411e+05 1.013411e+05 1.013561e+05 1.013209e+05 1.013203e+05 1.013209e+05 1.013209e+05 1.013199e+05 1.013331e+05 1.013331e+05 1.013331e+05 1.013330e+05 1.013342e+05 1.013352e+05 1.013352e+05 1.013282e+05 1.013282e+05 1.013271e+05 1.013271e+05 1.013366e+05 1.013366e+05 1.013366e+05 1.013376e+05 1.013376e+05 1.013276e+05 1.013276e+05 1.013276e+05 1.013276e+05 1.013271e+05 1.013312e+05 1.013299e+05 1.013424e+05 1.013424e+05 1.013424e+05 1.013418e+05 1.013457e+05 1.013457e+05 1.013457e+05 1.013449e+05 1.013371e+05 1.013371e+05 1.013371e+05 1.013527e+05 1.013527e+05 1.013527e+05 1.013231e+05 1.013231e+05 1.013231e+05 1.013522e+05 1.013522e+05 1.013522e+05 1.012984e+05 1.012984e+05 1.012984e+05 1.013418e+05 1.012947e+05 1.013358e+05 1.013358e+05 1.013358e+05 1.013174e+05 1.013174e+05 1.013233e+05 1.013415e+05 1.013415e+05 1.013415e+05 1.013385e+05 1.013453e+05 1.013453e+05 1.013453e+05 1.013244e+05 1.013244e+05 1.013244e+05 1.013592e+05 1.013592e+05 1.013592e+05 1.013495e+05 1.013106e+05 1.013106e+05 1.013106e+05 1.013252e+05 1.013073e+05 1.013073e+05 1.013073e+05 1.013329e+05 1.013370e+05 1.013370e+05 1.013370e+05 1.013460e+05 1.013460e+05 1.013460e+05 1.013466e+05 1.013447e+05 1.013447e+05 1.013447e+05 1.013252e+05 1.013516e+05 1.013516e+05 1.013516e+05 1.013468e+05 1.013438e+05 1.013438e+05 1.013438e+05 1.013273e