<?xml version="1.0"?>
 <VTKFile type="UnstructuredGrid" version="1.0" byte_order="LittleEndian" header_type="UInt64">
  <UnstructuredGrid>
    <FieldData>
     <DataArray type="Float64" Name="TimeValue" NumberOfTuples="1" format="ascii">
10
     </DataArray>
    </FieldData>
   <Piece NumberOfPoints="3662" NumberOfCells="3444">
    <PointData>
     <DataArray type="Float64" Name="pointP" format="ascii">
1.222251e+05 1.984025e+05 2.384302e+05 2.193667e+05 1.929987e+05 1.694589e+05 1.562155e+05 1.432566e+05 1.388235e+05 1.412007e+05 1.492665e+05 1.552410e+05 1.463803e+05 1.781865e+05 1.910423e+05 1.862599e+05 1.547648e+05 1.461823e+05 1.506537e+05 1.346509e+05 1.331171e+05 1.117414e+05 1.278266e+05 1.277944e+05 2.853429e+05 2.848705e+05 1.758534e+05 1.918587e+05 1.703310e+05 1.347181e+05 1.502047e+05 1.654857e+05 1.721711e+05 1.724323e+05 1.476982e+05 1.352964e+05 1.611140e+05 1.532893e+05 8.312855e+04 1.063626e+05 1.152919e+05 1.155699e+05 1.104665e+05 1.333350e+05 1.504785e+05 1.458623e+05 1.306012e+05 1.174527e+05 1.399699e+05 1.496745e+05 1.600780e+05 1.760027e+05 1.680960e+05 1.200183e+05 1.261340e+05 1.237124e+05 1.398085e+05 1.560797e+05 1.700125e+05 1.772812e+05 1.718342e+05 1.391417e+05 9.890707e+04 1.004836e+05 9.977300e+04 1.021613e+05 1.167715e+05 1.189858e+05 1.160494e+05 1.099895e+05 1.160730e+05 1.316287e+05 1.416121e+05 1.503222e+05 1.514509e+05 1.435185e+05 1.335659e+05 1.239214e+05 1.163621e+05 1.111990e+05 1.147761e+05 1.121638e+05 1.075232e+05 1.099796e+05 1.096821e+05 1.091992e+05 1.091871e+05 1.103189e+05 1.133673e+05 1.151621e+05 1.132272e+05 1.069251e+05 1.076489e+05 1.022133e+05 1.045816e+05 1.061029e+05 9.896384e+04 1.001003e+05 1.007891e+05 1.013512e+05 1.019947e+05 1.029016e+05 1.039758e+05 9.909018e+04 1.006071e+05 9.238975e+04 8.976121e+04 8.717008e+04 8.653172e+04 8.693955e+04 9.162677e+04 9.213762e+04 9.181435e+04 9.223582e+04 9.377617e+04 9.790091e+04 9.638782e+04 9.434064e+04 9.437045e+04 9.429349e+04 9.268960e+04 9.418051e+04 9.369472e+04 9.369472e+04 1.013324e+05 1.013344e+05 1.013345e+05 1.013345e+05 1.013345e+05 1.013342e+05 1.013334e+05 1.013334e+05 1.013327e+05 1.013329e+05 1.013329e+05 1.013329e+05 1.013334e+05 1.013334e+05 1.013338e+05 1.013339e+05 1.013344e+05 1.013350e+05 1.013354e+05 1.013372e+05 1.013372e+05 1.013391e+05 1.013391e+05 1.013406e+05 1.013447e+05 1.013449e+05 1.013483e+05 1.013503e+05 1.013542e+05 1.013584e+05 1.013615e+05 1.013745e+05 1.013831e+05 1.013930e+05 1.014059e+05 1.014208e+05 1.014391e+05 1.014391e+05 1.014571e+05 1.014770e+05 1.014770e+05 1.015104e+05 1.015141e+05 1.015141e+05 1.014554e+05 1.015948e+05 1.015948e+05 1.013809e+05 1.012414e+05 1.008086e+05 1.008086e+05 1.000864e+05 1.071914e+05 1.082248e+05 1.114815e+05 1.152689e+05 1.013329e+05 1.013401e+05 1.013401e+05 1.013401e+05 1.013406e+05 1.013440e+05 1.013440e+05 1.013440e+05 1.013437e+05 1.013437e+05 1.013457e+05 1.013457e+05 1.013457e+05 1.013473e+05 1.013472e+05 1.013330e+05 1.013435e+05 1.013435e+05 1.013420e+05 1.013426e+05 1.013426e+05 1.013426e+05 1.013422e+05 1.013410e+05 1.017345e+05 1.017345e+05 1.017345e+05 1.007966e+05 1.013352e+05 1.013352e+05 1.013352e+05 1.013349e+05 1.013341e+05 1.013341e+05 1.013391e+05 1.013391e+05 1.013424e+05 1.013402e+05 1.013329e+05 1.013329e+05 1.013346e+05 1.013346e+05 1.013346e+05 1.013346e+05 1.013347e+05 1.013347e+05 1.013350e+05 1.013505e+05 1.013505e+05 1.013505e+05 1.013495e+05 1.013471e+05 1.013509e+05 1.013495e+05 1.013441e+05 1.013441e+05 1.013441e+05 1.013432e+05 1.013341e+05 1.013327e+05 1.013303e+05 1.013327e+05 1.014381e+05 1.014381e+05 1.014381e+05 1.015211e+05 1.015211e+05 1.015211e+05 1.014967e+05 1.014791e+05 1.015068e+05 1.014791e+05 1.014791e+05 1.011326e+05 1.011326e+05 1.011326e+05 1.010814e+05 1.015872e+05 1.015872e+05 1.015872e+05 1.013926e+05 1.014829e+05 1.014829e+05 1.014829e+05 1.007613e+05 1.007613e+05 1.011840e+05 1.011840e+05 1.011840e+05 1.012672e+05 1.010668e+05 1.010668e+05 1.010668e+05 1.010560e+05 1.010560e+05 1.043394e+05 1.043394e+05 1.043394e+05 1.049962e+05 1.021671e+05 1.021671e+05 1.021671e+05 1.019570e+05 1.019570e+05 1.015746e+05 1.018936e+05 9.216559e+04 9.216559e+04 9.216559e+04 9.432031e+04 1.220902e+05 1.220902e+05 1.220902e+05 1.300548e+05 1.300548e+05 1.113806e+05 1.113806e+05 1.113806e+05 1.069772e+05 1.159876e+05 1.159876e+05 1.159876e+05 1.075677e+05 9.223582e+04 9.826252e+04 9.826252e+04 9.826252e+04 1.298875e+05 1.298875e+05 1.298875e+05 1.468532e+05 1.049119e+05 1.049119e+05 1.049119e+05 1.077788e+05 1.001003e+05 1.026302e+05 1.026302e+05 1.026302e+05 1.024532e+05 1.052174e+05 1.052174e+05 1.052174e+05 1.035276e+05 1.035276e+05 1.018936e+05 1.018936e+05 1.015746e+05 1.022616e+05 1.022616e+05 1.022616e+05 1.029733e+05 1.029733e+05 1.018610e+05 1.017532e+05 1.017532e+05 1.011637e+05 1.011637e+05 1.011637e+05 1.009744e+05 1.009744e+05 1.014174e+05 1.014174e+05 1.014174e+05 1.013899e+05 1.013651e+05 1.013812e+05 1.013651e+05 1.013651e+05 1.013424e+05 1.013510e+05 1.013510e+05 1.013510e+05 1.013528e+05 1.013549e+05 1.013580e+05 1.013580e+05 1.013430e+05 1.013430e+05 1.013412e+05 1.013412e+05 1.013577e+05 1.013577e+05 1.013577e+05 1.013626e+05 1.013626e+05 1.013365e+05 1.013365e+05 1.013365e+05 1.013361e+05 1.013362e+05 1.013459e+05 1.013434e+05 1.014032e+05 1.014032e+05 1.014032e+05 1.014014e+05 1.014303e+05 1.014303e+05 1.014303e+05 1.014128e+05 1.013521e+05 1.013521e+05 1.013521e+05 1.016223e+05 1.016223e+05 1.016223e+05 1.013696e+05 1.013696e+05 1.013696e+05 1.019179e+05 1.019179e+05 1.019179e+05 1.013968e+05 1.013968e+05 1.013968e+05 1.014013e+05 1.014220e+05 1.013994e+05 1.013994e+05 1.013994e+05 1.013644e+05 1.013644e+05 1.013702e+05 1.013314e+05 1.013314e+05 1.013314e+05 1.012542e+05 1.014954e+05 1.014954e+05 1.014954e+05 1.014713e+05 1.013682e+05 1.013682e+05 1.033974e+05 1.033974e+05 1.033974e+05 1.030603e+05 1.016377e+05 1.016377e+05 1.016377e+05 1.016102e+05 1.012182e+05 1.012182e+05 1.012182e+05 1.012547e+05 1.023871e+05 1.023871e+05 1.023871e+05 1.002802e+05 1.002802e+05 1.002802e+05 1.002925e+05 1.021711e+05 1.021711e+05 1.021711e+05 1.019453e+05 1.028032e+05 1.028032e+05 1.028032e+05 1.021122e+05 1.023604e+05 1.023604e+05 1.023604e+05 1.024183e+05 1.114361e+05 1.114361e+05 1.114361e+05 1.405340e+05 1.405340e+05 1.405340e+05 1.357422e+05 1.434804e+05 1.434804e+05 1.434804e+05 1.321300e+05 1.065941e+05 1.065941e+05 1.011376e+05 1.167875e+05 1.167875e+05 1.067155e+05 9.039321e+04 9.039321e+04 9.458546e+04 1.065450e+05 1.065450e+05 1.065450e+05 1.055340e+05 1.079077e+05 1.079077e+05 1.079077e+05 1.519289e+05 1.519289e+05 1.501126e+05 1.252579e+05 1.252579e+05 1.343811e+05 1.061943e+05 1.348514e+05 1.359478e+05 1.005012e+05 1.005012e+05 1.000349e+05 1.250344e+05 1.250344e+05 1.250344e+05 1.450729e+05 1.116061e+05 1.116061e+05 1.246304e+05 1.246304e+05 1.246304e+05 1.167314e+05 1.167314e+05 1.167314e+05 1.176861e+05 1.176861e+05 1.062468e+05 1.062468e+05 1.062468e+05 1.122793e+05 1.119541e+05 1.119541e+05 1.119541e+05 1.088660e+05 1.088660e+05 1.012770e+05 1.012770e+05 1.012770e+05 1.013161e+05 1.013161e+05 1.021825e+05 1.021825e+05 1.035321e+05 1.035321e+05 1.061986e+05 1.061986e+05 1.061986e+05 9.929356e+04 9.929356e+04 9.929356e+04 1.011505e+05 1.011854e+05 1.011854e+05 1.011854e+05 1.012339e+05 1.012339e+05 1.017247e+05 1.017247e+05 1.017247e+05 1.016058e+05 1.016058e+05 1.016833e+05 1.016833e+05 1.016833e+05 1.016853e+05 1.016853e+05 1.008943e+05 1.008943e+05 1.008943e+05 1.011079e+05 1.011079e+05 1.013445e+05 1.013445e+05 1.013445e+05 1.013436e+05 1.015085e+05 1.015085e+05 1.018769e+05 1.018769e+05 1.018769e+05 1.018245e+05 1.018245e+05 1.013628e+05 1.013628e+05 1.013628e+05 1.013636e+05 1.013636e+05 1.013801e+05 1.013801e+05 1.013801e+05 1.014024e+05 1.014024e+05 1.013648e+05 1.013648e+05 1.013582e+05 1.013582e+05 1.013574e+05 1.013574e+05 1.013677e+05 1.013677e+05 1.013609e+05 1.013534e+05 1.013534e+05 1.013698e+05 1.013698e+05 1.013698e+05 1.013701e+05 1.013701e+05 1.013571e+05 1.013571e+05 1.013393e+05 1.013393e+05 1.013393e+05 1.013411e+05 1.013487e+05 1.013335e+05 1.013332e+05 1.013496e+05 1.013496e+05 1.013496e+05 1.013478e+05 1.013478e+05 1.013603e+05 1.013603e+05 1.013586e+05 1.013544e+05 1.013518e+05 1.016059e+05 1.016059e+05 1.016059e+05 1.015628e+05 1.021151e+05 1.021151e+05 1.019399e+05 1.066484e+05 1.066484e+05 1.066484e+05 9.728366e+04 9.728366e+04 9.728366e+04 9.662666e+04 9.796117e+04 1.047787e+05 1.047787e+05 1.047787e+05 1.076455e+05 9.240486e+04 9.702377e+04 9.702377e+04 1.245882e+05 1.245882e+05 1.167715e+05 9.902072e+04 9.902072e+04 9.902072e+04 1.468877e+05 1.468877e+05 1.468877e+05 1.686395e+05 2.384302e+05 1.687020e+05 1.687020e+05 1.275565e+05 1.275565e+05 1.275565e+05 1.463336e+05 1.007226e+05 1.007226e+05 1.009813e+05 1.061029e+05 1.584903e+05 1.584903e+05 1.371756e+05 1.371756e+05 1.072182e+05 1.072182e+05 9.588147e+04 9.588147e+04 9.588147e+04 1.802834e+05 1.802834e+05 1.784558e+05 9.505007e+04 9.505007e+04 9.735776e+04 1.178769e+05 1.374421e+05 1.320625e+05 1.320625e+05 1.261687e+05 1.054752e+05 1.054752e+05 1.054752e+05 1.152203e+05 1.760027e+05 1.619801e+05 2.193667e+05 1.453819e+05 1.072785e+05 1.072785e+05 1.191268e+05 1.191268e+05 1.191268e+05 1.389584e+05 1.020523e+05 1.020523e+05 1.027465e+05 1.027465e+05 1.178077e+05 1.074532e+05 1.074532e+05 1.080727e+05 1.099977e+05 1.099977e+05 1.099977e+05 9.213762e+04 1.432566e+05 1.254672e+05 1.184915e+05 1.184915e+05 1.184915e+05 1.179944e+05 9.553095e+04 9.553095e+04 9.743986e+04 1.255657e+05 1.255657e+05 1.418508e+05 1.002208e+05 1.002208e+05 1.093612e+05 1.093612e+05 1.399384e+05 8.312855e+04 8.454018e+04 1.361705e+05 1.438675e+05 1.438675e+05 1.128839e+05 8.790658e+04 9.156493e+04 9.156493e+04 9.997016e+04 9.997016e+04 1.004318e+05 1.004318e+05 1.154754e+05 1.154754e+05 1.005438e+05 1.254172e+05 1.067279e+05 1.067279e+05 1.093502e+05 1.154723e+05 1.154723e+05 1.154723e+05 1.286085e+05 1.286085e+05 1.040621e+05 1.004439e+05 1.004439e+05 1.455566e+05 1.288612e+05 1.429746e+05 1.165842e+05 9.418051e+04 9.268960e+04 1.229745e+05 1.178518e+05 1.009050e+05 1.009050e+05 1.009050e+05 1.014620e+05 1.190780e+05 9.839043e+04 9.929441e+04 9.929441e+04 1.174527e+05 1.369961e+05 1.020578e+05 1.020578e+05 1.150914e+05 1.150914e+05 1.007066e+05 1.007066e+05 1.009069e+05 9.824177e+04 9.824177e+04 1.009868e+05 1.011017e+05 1.045171e+05 1.087001e+05 9.615505e+04 9.615505e+04 9.698208e+04 9.698208e+04 9.816376e+04 1.034669e+05 1.318733e+05 9.458448e+04 1.057612e+05 1.102243e+05 1.188759e+05 1.009783e+05 1.016788e+05 1.016155e+05 1.007530e+05 1.107885e+05 1.073806e+05 1.312924e+05 1.312924e+05 9.597339e+04 9.713493e+04 1.122513e+05 1.012364e+05 1.105193e+05 1.105193e+05 1.030817e+05 1.030817e+05 1.030817e+05 1.040398e+05 9.726918e+04 9.769638e+04 1.175923e+05 1.119071e+05 1.045368e+05 1.045368e+05 1.045368e+05 1.081405e+05 1.081405e+05 1.081405e+05 1.110668e+05 1.235071e+05 1.005172e+05 9.960717e+04 1.032273e+05 1.032273e+05 1.032273e+05 1.035552e+05 1.035552e+05 1.035552e+05 1.065504e+05 1.094227e+05 1.094227e+05 1.075779e+05 1.095687e+05 1.089974e+05 9.969936e+04 1.003789e+05 1.000603e+05 1.000603e+05 1.002578e+05 1.007425e+05 1.007425e+05 1.011608e+05 1.011608e+05 1.010999e+05 1.185834e+05 1.033242e+05 1.113935e+05 1.097464e+05 1.120590e+05 1.120590e+05 1.086489e+05 1.086489e+05 1.196914e+05 1.011623e+05 1.124789e+05 1.039816e+05 1.039816e+05 9.907827e+04 9.907827e+04 1.097535e+05 1.034368e+05 1.034368e+05 1.034368e+05 1.072392e+05 1.039843e+05 1.003967e+05 1.003967e+05 1.003967e+05 1.010053e+05 1.010053e+05 1.078785e+05 1.060335e+05 1.078053e+05 1.078053e+05 1.124592e+05 1.007648e+05 1.014182e+05 1.145794e+05 1.145794e+05 9.823275e+04 1.065266e+05 1.053771e+05 1.004370e+05 1.004370e+05 1.004370e+05 1.005521e+05 1.117162e+05 1.117162e+05 1.070468e+05 1.159874e+05 1.091799e+05 1.091799e+05 1.014083e+05 1.014083e+05 1.014083e+05 1.019139e+05 9.961718e+04 1.018410e+05 1.017557e+05 1.017557e+05 1.041678e+05 1.041233e+05 1.041233e+05 1.031528e+05 9.769536e+04 9.874004e+04 9.874004e+04 1.061511e+05 1.061511e+05 1.013427e+05 9.953625e+04 9.953625e+04 1.029917e+05 1.022649e+05 1.022649e+05 1.042965e+05 1.040584e+05 1.017658e+05 1.044161e+05 1.009379e+05 1.009379e+05 1.009379e+05 1.013978e+05 1.041848e+05 1.037432e+05 1.022830e+05 1.022830e+05 1.027399e+05 1.027399e+05 1.027399e+05 1.026817e+05 1.026817e+05 1.026817e+05 9.851318e+04 1.010321e+05 1.038880e+05 1.038880e+05 1.038880e+05 1.014221e+05 1.086046e+05 1.013180e+05 1.012938e+05 1.022323e+05 1.009536e+05 1.009536e+05 1.044496e+05 1.027408e+05 1.060910e+05 1.056099e+05 1.056099e+05 1.049944e+05 1.067252e+05 1.067252e+05 1.132095e+05 1.111263e+05 1.052737e+05 1.045477e+05 1.045477e+05 1.060881e+05 1.025507e+05 1.025507e+05 1.031284e+05 1.031284e+05 1.040677e+05 1.040677e+05 1.032824e+05 1.032824e+05 1.029546e+05 1.068898e+05 1.051663e+05 1.019121e+05 1.019121e+05 1.029890e+05 1.017710e+05 1.016847e+05 1.027989e+05 1.032282e+05 1.032282e+05 1.021143e+05 1.008940e+05 1.040252e+05 1.029349e+05 1.026726e+05 1.026726e+05 1.010518e+05 1.021847e+05 1.021847e+05 1.026448e+05 1.019480e+05 1.019480e+05 1.019480e+05 1.018249e+05 1.015065e+05 1.013194e+05 1.013194e+05 1.011428e+05 1.011940e+05 1.011940e+05 1.022211e+05 1.043214e+05 1.043214e+05 1.043214e+05 9.960299e+04 1.048500e+05 9.977584e+04 1.010990e+05 1.031505e+05 1.020316e+05 1.017827e+05 1.017827e+05 1.013310e+05 1.013670e+05 1.013670e+05 1.013997e+05 1.014744e+05 1.013257e+05 1.013441e+05 1.013441e+05 1.041510e+05 1.041510e+05 1.041510e+05 1.037749e+05 1.029874e+05 1.029874e+05 1.019508e+05 1.035166e+05 1.016511e+05 1.011102e+05 1.011102e+05 1.018884e+05 1.018884e+05 1.011289e+05 1.054608e+05 1.054608e+05 1.020265e+05 9.925371e+04 1.001376e+05 1.001376e+05 1.002904e+05 1.002904e+05 1.006016e+05 1.006016e+05 1.028528e+05 1.025866e+05 1.013061e+05 1.016828e+05 1.041411e+05 1.041411e+05 1.028116e+05 1.017214e+05 1.017214e+05 1.015535e+05 1.015535e+05 1.018622e+05 1.018385e+05 1.014522e+05 1.016411e+05 1.005762e+05 1.007498e+05 1.011715e+05 1.015371e+05 1.015371e+05 1.015371e+05 1.027337e+05 1.027337e+05 1.029185e+05 1.012978e+05 1.012978e+05 1.012978e+05 1.012586e+05 1.012586e+05 1.010153e+05 1.010153e+05 1.013993e+05 1.029144e+05 1.028607e+05 1.018108e+05 1.025126e+05 1.025126e+05 1.023082e+05 1.010289e+05 1.025361e+05 1.025361e+05 1.009139e+05 1.014174e+05 1.014174e+05 1.014174e+05 1.013638e+05 1.016805e+05 1.016340e+05 1.015543e+05 1.014661e+05 1.012538e+05 1.015880e+05 1.022611e+05 1.017776e+05 1.039652e+05 1.029409e+05 1.029409e+05 1.029409e+05 1.030414e+05 1.016395e+05 1.029238e+05 1.016930e+05 1.019828e+05 1.013284e+05 1.013284e+05 1.013284e+05 1.015743e+05 1.015743e+05 1.015743e+05 1.015787e+05 1.015787e+05 1.027129e+05 1.024257e+05 1.024257e+05 1.024257e+05 1.013525e+05 1.013028e+05 1.013028e+05 1.013028e+05 1.013482e+05 1.013768e+05 1.013768e+05 1.013768e+05 1.013007e+05 1.013007e+05 1.013007e+05 1.013705e+05 1.014495e+05 1.020729e+05 1.020729e+05 1.011037e+05 1.027102e+05 1.016126e+05 1.015389e+05 1.015389e+05 1.015389e+05 1.010787e+05 1.018386e+05 1.016678e+05 1.013190e+05 1.013294e+05 1.011342e+05 1.014448e+05 1.022190e+05 1.022190e+05 1.024205e+05 1.024925e+05 1.012727e+05 1.012592e+05 1.021754e+05 1.014777e+05 1.014777e+05 1.015629e+05 1.011862e+05 1.014493e+05 1.014493e+05 1.014968e+05 1.015276e+05 1.013442e+05 1.013442e+05 1.013412e+05 1.013412e+05 1.013468e+05 1.014501e+05 1.019277e+05 1.018942e+05 1.012431e+05 1.012085e+05 1.012667e+05 1.027387e+05 1.026185e+05 1.013495e+05 1.014070e+05 1.014070e+05 1.014070e+05 1.020053e+05 1.020053e+05 1.012786e+05 1.012786e+05 1.012605e+05 1.018152e+05 1.013026e+05 1.013493e+05 1.013493e+05 1.013935e+05 1.013935e+05 1.014118e+05 1.013680e+05 1.013680e+05 1.013932e+05 1.013573e+05 1.013555e+05 1.014479e+05 1.014124e+05 1.014377e+05 1.014286e+05 1.014150e+05 1.013466e+05 1.013466e+05 1.013466e+05 1.013468e+05 1.018564e+05 1.022766e+05 1.012763e+05 1.018981e+05 1.013256e+05 1.013256e+05 1.013545e+05 1.012797e+05 1.012797e+05 1.013142e+05 1.013142e+05 1.014070e+05 1.013892e+05 1.013536e+05 1.013978e+05 1.012749e+05 1.013843e+05 1.013429e+05 1.013429e+05 1.013434e+05 1.013434e+05 1.013434e+05 1.013604e+05 1.018287e+05 1.017630e+05 1.013408e+05 1.013625e+05 1.014077e+05 1.013726e+05 1.013241e+05 1.013241e+05 1.013636e+05 1.013636e+05 1.013641e+05 1.013641e+05 1.013315e+05 1.017436e+05 1.015429e+05 1.015429e+05 1.014830e+05 1.013586e+05 1.013727e+05 1.016947e+05 1.013747e+05 1.013747e+05 1.013748e+05 1.013475e+05 1.013445e+05 1.015583e+05 1.015583e+05 1.013625e+05 1.013625e+05 1.013663e+05 1.013591e+05 1.013591e+05 1.013544e+05 1.014651e+05 1.013547e+05 1.013618e+05 1.014347e+05 1.015313e+05 1.013497e+05 1.013568e+05 1.013915e+05 1.013915e+05 1.014506e+05 1.013463e+05 1.013424e+05 1.013501e+05 1.013501e+05 1.013501e+05 1.013500e+05 1.013565e+05 1.013565e+05 1.014462e+05 1.014462e+05 1.014201e+05 1.014201e+05 1.013586e+05 1.013446e+05 1.013421e+05 1.013763e+05 1.013763e+05 1.013763e+05 1.013722e+05 1.013576e+05 1.013576e+05 1.013785e+05 1.013785e+05 1.013587e+05 1.013587e+05 1.013588e+05 1.013344e+05 1.013344e+05 1.013344e+05 1.013322e+05 1.013570e+05 1.013551e+05 1.013551e+05 1.013451e+05 1.013483e+05 1.013327e+05 1.013358e+05 1.013389e+05 1.013389e+05 1.013587e+05 1.013893e+05 1.013468e+05 1.013480e+05 1.013541e+05 1.013464e+05 1.013464e+05 1.013642e+05 1.013628e+05 1.013954e+05 1.013402e+05 1.013402e+05 1.013416e+05 1.013691e+05 1.013691e+05 1.013652e+05 1.013386e+05 1.013353e+05 1.013353e+05 1.013353e+05 1.013347e+05 1.013591e+05 1.013337e+05 1.013395e+05 1.013454e+05 1.013337e+05 1.013391e+05 1.013345e+05 1.013345e+05 1.013433e+05 1.013421e+05 1.013366e+05 1.013367e+05 1.013403e+05 1.013403e+05 1.013403e+05 1.013354e+05 1.013403e+05 1.013403e+05 1.013403e+05 1.013386e+05 1.013386e+05 1.013371e+05 1.013354e+05 1.013390e+05 1.013357e+05 1.013352e+05 1.013380e+05 1.013356e+05 1.013360e+05 1.013377e+05 1.013377e+05 1.013345e+05 1.013345e+05 1.013348e+05 1.013367e+05 1.013367e+05 1.013367e+05 1.013363e+05 1.013363e+05 1.013350e+05 1.013350e+05 1.013350e+05 1.014175e+05 1.014568e+05 1.014568e+05 1.014568e+05 1.013330e+05 1.013330e+05 1.014936e+05 1.014936e+05 1.014936e+05 1.015019e+05 1.015019e+05 1.013335e+05 1.013325e+05 1.014469e+05 1.014469e+05 1.014325e+05 1.013328e+05 1.015146e+05 1.014523e+05 1.014830e+05 1.013335e+05 1.013329e+05 1.013327e+05 1.013369e+05 1.013369e+05 1.013368e+05 1.033558e+05 1.013564e+05 1.013564e+05 1.013564e+05 1.013550e+05 1.013957e+05 1.013957e+05 1.013957e+05 1.014090e+05 1.014070e+05 1.014070e+05 1.015964e+05 1.013597e+05 1.013597e+05 1.013597e+05 1.013608e+05 1.013354e+05 1.022067e+05 1.022067e+05 1.022067e+05 1.013845e+05 1.015804e+05 1.015804e+05 1.015744e+05 1.015744e+05 1.015744e+05 1.013751e+05 1.013751e+05 1.013751e+05 1.014136e+05 1.013892e+05 1.013892e+05 1.013996e+05 1.014589e+05 1.013569e+05 1.013898e+05 1.013735e+05 1.013832e+05 1.013541e+05 1.013495e+05 1.013727e+05 1.013503e+05 1.013440e+05 1.013470e+05 1.013470e+05 1.013399e+05 1.013399e+05 1.013399e+05 1.013334e+05 1.017351e+05 1.014175e+05 1.014175e+05 1.013712e+05 1.013614e+05 1.013481e+05 1.013481e+05 1.017461e+05 1.017461e+05 1.015654e+05 1.015654e+05 1.014218e+05 1.014075e+05 1.013547e+05 1.013426e+05 1.013366e+05 1.013366e+05 1.013395e+05 1.013397e+05 1.023122e+05 1.023122e+05 1.013483e+05 1.013397e+05 1.013397e+05 1.013446e+05 1.013420e+05 1.013407e+05 1.013376e+05 1.013376e+05 1.013376e+05 1.013369e+05 1.013369e+05 1.013380e+05 1.013355e+05 1.013355e+05 1.013355e+05 1.013383e+05 1.013383e+05 1.013343e+05 1.013362e+05 1.013362e+05 1.013383e+05 1.013352e+05 1.013352e+05 1.013339e+05 1.013341e+05 1.013338e+05 1.013343e+05 1.013343e+05 1.013343e+05 1.013360e+05 1.013356e+05 1.013352e+05 1.013355e+05 1.015285e+05 1.013353e+05 1.013357e+05 1.013352e+05 1.013342e+05 1.015029e+05 1.015719e+05 1.015719e+05 1.017127e+05 1.017127e+05 1.018715e+05 1.018715e+05 1.018715e+05 1.017726e+05 1.023009e+05 1.023009e+05 1.023009e+05 1.046588e+05 1.013333e+05 1.013338e+05 1.013338e+05 1.013338e+05 1.013338e+05 1.013342e+05 1.013347e+05 1.013465e+05 1.013341e+05 1.013351e+05 1.013358e+05 1.013359e+05 1.013384e+05 1.013375e+05 1.013356e+05 1.013339e+05 1.013344e+05 1.013343e+05 1.013343e+05 1.013336e+05 1.013336e+05 1.013349e+05 1.013346e+05 1.013344e+05 1.013341e+05 1.015918e+05 1.016614e+05 1.022202e+05 1.069079e+05 1.222251e+05 1.378367e+05 1.488176e+05 1.560565e+05 1.506889e+05 1.398358e+05 1.338013e+05 1.291299e+05 1.287596e+05 1.309811e+05 1.172014e+05 1.013290e+05 1.013290e+05 1.013301e+05 1.013301e+05 1.013306e+05 1.013312e+05 1.013314e+05 1.013314e+05 1.013314e+05 1.013317e+05 1.013306e+05 1.013306e+05 1.013297e+05 1.013297e+05 1.013297e+05 1.013310e+05 1.013310e+05 1.013310e+05 1.013302e+05 1.013302e+05 1.013290e+05 1.013290e+05 1.013290e+05 1.013297e+05 1.013290e+05 1.013286e+05 1.013286e+05 1.013309e+05 1.013289e+05 1.013289e+05 1.104592e+05 1.104592e+05 1.104592e+05 1.240598e+05 1.240598e+05 1.013289e+05 1.013295e+05 1.013295e+05 1.159012e+05 1.159012e+05 1.109574e+05 1.014399e+05 1.014399e+05 1.014399e+05 1.013283e+05 1.013283e+05 1.013283e+05 1.013247e+05 1.013247e+05 1.013296e+05 1.005174e+05 1.005174e+05 1.005174e+05 1.007606e+05 1.351941e+05 1.351941e+05 1.351941e+05 1.217270e+05 1.122096e+05 1.077479e+05 1.077479e+05 1.077479e+05 1.236346e+05 1.111382e+05 1.111382e+05 1.111382e+05 1.118560e+05 1.013218e+05 1.013026e+05 1.013218e+05 1.013218e+05 1.013291e+05 1.013291e+05 1.013279e+05 1.012568e+05 1.012568e+05 1.283495e+05 1.309811e+05 1.206001e+05 1.206001e+05 1.118560e+05 1.082248e+05 1.071914e+05 1.116000e+05 1.092916e+05 1.049128e+05 1.049128e+05 1.042105e+05 1.038526e+05 1.072770e+05 1.042105e+05 1.043236e+05 1.016305e+05 1.016305e+05 1.021958e+05 1.021958e+05 1.020088e+05 1.015738e+05 1.006906e+05 1.012299e+05 1.012299e+05 1.011465e+05 1.013355e+05 1.011707e+05 1.012118e+05 1.012118e+05 1.013026e+05 1.013401e+05 1.013401e+05 1.013430e+05 1.013430e+05 1.013315e+05 1.013301e+05 1.013341e+05 1.013283e+05 1.013279e+05 1.013279e+05 1.013329e+05 1.013329e+05 1.013329e+05 1.013326e+05 1.013300e+05 1.013320e+05 1.013320e+05 1.013320e+05 1.013317e+05 1.013342e+05 1.013342e+05 1.013342e+05 1.013342e+05 1.013339e+05 1.013355e+05 1.013355e+05 1.013355e+05 1.013359e+05 1.013386e+05 1.013386e+05 1.013386e+05 1.013407e+05 1.013394e+05 1.013388e+05 1.013388e+05 1.013377e+05 1.013677e+05 1.013677e+05 1.013677e+05 1.013930e+05 1.013930e+05 1.013686e+05 1.013686e+05 1.013686e+05 1.013324e+05 1.013324e+05 1.013540e+05 1.013540e+05 1.013540e+05 1.013445e+05 1.013445e+05 1.013846e+05 1.013846e+05 1.013846e+05 1.014021e+05 1.014021e+05 1.014021e+05 1.013525e+05 1.013525e+05 1.013525e+05 1.013299e+05 1.013909e+05 1.013880e+05 1.013648e+05 1.013615e+05 1.014020e+05 1.013857e+05 1.013857e+05 1.013484e+05 1.013484e+05 1.013540e+05 1.013456e+05 1.013479e+05 1.013479e+05 1.013479e+05 1.013370e+05 1.012568e+05 1.013422e+05 1.013416e+05 1.013416e+05 1.013416e+05 1.013381e+05 1.013372e+05 1.013371e+05 1.013346e+05 1.013345e+05 1.013358e+05 1.013360e+05 1.013342e+05 1.013311e+05 1.013311e+05 1.013321e+05 1.014554e+05 1.014554e+05 1.013752e+05 1.013449e+05 1.013449e+05 1.013702e+05 1.011753e+05 1.013391e+05 1.013391e+05 1.013353e+05 1.013353e+05 1.013353e+05 1.013482e+05 1.013742e+05 1.013354e+05 1.013317e+05 1.013338e+05 1.013322e+05 1.013334e+05 1.013334e+05 1.013334e+05 1.013317e+05 1.013317e+05 1.013309e+05 1.013329e+05 1.013329e+05 1.013309e+05 1.013300e+05 1.013296e+05 1.013322e+05 1.013322e+05 1.013302e+05 1.013311e+05 1.013578e+05 1.013323e+05 1.013323e+05 1.012614e+05 1.012614e+05 1.013792e+05 1.013305e+05 1.013483e+05 1.013948e+05 1.014391e+05 1.014413e+05 1.014318e+05 1.014318e+05 1.014122e+05 1.014122e+05 1.014122e+05 1.014141e+05 1.015087e+05 1.015948e+05 1.013809e+05 1.013809e+05 1.012689e+05 1.032149e+05 1.013372e+05 1.013391e+05 1.014239e+05 1.012414e+05 1.013406e+05 1.013417e+05 1.013360e+05 1.013354e+05 1.013373e+05 1.013352e+05 1.013338e+05 1.013369e+05 1.013331e+05 1.013331e+05 1.013331e+05 1.013333e+05 1.013329e+05 1.013326e+05 1.013326e+05 1.013329e+05 1.013312e+05 1.013321e+05 1.013600e+05 1.013404e+05 1.012699e+05 1.010663e+05 1.013645e+05 1.012697e+05 1.014792e+05 1.010988e+05 1.013417e+05 1.013328e+05 1.013301e+05 1.222251e+05 1.984025e+05 2.384302e+05 2.193667e+05 1.929987e+05 1.694589e+05 1.562155e+05 1.432566e+05 1.388235e+05 1.412007e+05 1.492665e+05 1.552410e+05 1.463803e+05 1.781865e+05 1.910423e+05 1.862599e+05 1.547648e+05 1.461823e+05 1.506537e+05 1.346509e+05 1.331171e+05 1.117414e+05 1.278266e+05 1.277944e+05 2.853429e+05 2.848705e+05 1.758534e+05 1.918587e+05 1.703310e+05 1.347181e+05 1.502047e+05 1.654857e+05 1.721711e+05 1.724323e+05 1.476982e+05 1.352964e+05 1.611140e+05 1.532893e+05 8.312855e+04 1.063626e+05 1.152919e+05 1.155699e+05 1.104665e+05 1.333350e+05 1.504785e+05 1.458623e+05 1.306012e+05 1.174527e+05 1.399699e+05 1.496745e+05 1.600780e+05 1.760027e+05 1.680960e+05 1.200183e+05 1.261340e+05 1.237124e+05 1.398085e+05 1.560797e+05 1.700125e+05 1.772812e+05 1.718342e+05 1.391417e+05 9.890707e+04 1.004836e+05 9.977300e+04 1.021613e+05 1.167715e+05 1.189858e+05 1.160494e+05 1.099895e+05 1.160730e+05 1.316287e+05 1.416121e+05 1.503222e+05 1.514509e+05 1.435185e+05 1.335659e+05 1.239214e+05 1.163621e+05 1.111990e+05 1.147761e+05 1.121638e+05 1.075232e+05 1.099796e+05 1.096821e+05 1.091992e+05 1.091871e+05 1.103189e+05 1.133673e+05 1.151621e+05 1.132272e+05 1.069251e+05 1.076489e+05 1.022133e+05 1.045816e+05 1.061029e+05 9.896384e+04 1.001003e+05 1.007891e+05 1.013512e+05 1.019947e+05 1.029016e+05 1.039758e+05 9.909018e+04 1.006071e+05 9.238975e+04 8.976121e+04 8.717008e+04 8.653172e+04 8.693955e+04 9.162677e+04 9.213762e+04 9.181435e+04 9.223582e+04 9.377617e+04 9.790091e+04 9.638782e+04 9.434064e+04 9.437045e+04 9.429349e+04 9.268960e+04 9.418051e+04 9.369472e+04 9.369472e+04 1.013324e+05 1.013324e+05 1.013346e+05 1.013345e+05 1.013345e+05 1.013342e+05 1.013334e+05 1.013334e+05 1.013327e+05 1.013329e+05 1.013329e+05 1.013329e+05 1.013334e+05 1.013334e+05 1.013338e+05 1.013339e+05 1.013344e+05 1.013350e+05 1.013354e+05 1.013372e+05 1.013372e+05 1.013391e+05 1.013391e+05 1.013406e+05 1.013447e+05 1.013449e+05 1.013483e+05 1.013503e+05 1.013542e+05 1.013584e+05 1.013615e+05 1.013745e+05 1.013831e+05 1.013930e+05 1.014059e+05 1.014208e+05 1.014391e+05 1.014391e+05 1.014571e+05 1.014770e+05 1.014770e+05 1.015104e+05 1.015141e+05 1.015141e+05 1.014554e+05 1.015948e+05 1.015948e+05 1.013809e+05 1.012414e+05 1.008086e+05 1.008086e+05 1.000864e+05 1.071914e+05 1.082248e+05 1.114815e+05 1.152689e+05 1.013329e+05 1.013401e+05 1.013401e+05 1.013401e+05 1.013406e+05 1.013440e+05 1.013440e+05 1.013440e+05 1.013437e+05 1.013437e+05 1.013457e+05 1.013457e+05 1.013457e+05 1.013473e+05 1.013472e+05 1.013330e+05 1.013435e+05 1.013435e+05 1.013420e+05 1.013426e+05 1.013426e+05 1.013426e+05 1.013422e+05 1.013410e+05 1.017345e+05 1.017345e+05 1.017345e+05 1.007966e+05 1.013352e+05 1.013352e+05 1.013352e+05 1.013349e+05 1.013341e+05 1.013341e+05 1.013391e+05 1.013391e+05 1.013424e+05 1.013402e+05 1.013329e+05 1.013329e+05 1.013346e+05 1.013346e+05 1.013346e+05 1.013346e+05 1.013347e+05 1.013347e+05 1.013350e+05 1.013505e+05 1.013505e+05 1.013505e+05 1.013495e+05 1.013471e+05 1.013509e+05 1.013495e+05 1.013441e+05 1.013441e+05 1.013441e+05 1.013432e+05 1.013341e+05 1.013327e+05 1.013303e+05 1.013327e+05 1.014381e+05 1.014381e+05 1.014381e+05 1.015211e+05 1.015211e+05 1.015211e+05 1.014967e+05 1.014791e+05 1.015068e+05 1.014791e+05 1.014791e+05 1.011326e+05 1.011326e+05 1.011326e+05 1.010814e+05 1.015872e+05 1.015872e+05 1.015872e+05 1.013926e+05 1.014829e+05 1.014829e+05 1.014829e+05 1.007613e+05 1.007613e+05 1.011840e+05 1.011840e+05 1.011840e+05 1.012672e+05 1.010668e+05 1.010668e+05 1.010668e+05 1.010560e+05 1.010560e+05 1.043394e+05 1.043394e+05 1.043394e+05 1.049962e+05 1.021671e+05 1.021671e+05 1.021671e+05 1.019570e+05 1.019570e+05 1.015746e+05 1.018936e+05 9.216559e+04 9.216559e+04 9.216559e+04 9.432031e+04 1.220902e+05 1.220902e+05 1.220902e+05 1.300548e+05 1.300548e+05 1.113806e+05 1.113806e+05 1.113806e+05 1.069772e+05 1.159876e+05 1.159876e+05 1.159876e+05 1.075677e+05 9.223582e+04 9.826252e+04 9.826252e+04 9.826252e+04 1.298875e+05 1.298875e+05 1.298875e+05 1.468532e+05 1.049119e+05 1.049119e+05 1.049119e+05 1.077788e+05 1.001003e+05 1.026302e+05 1.026302e+05 1.026302e+05 1.024532e+05 1.052174e+05 1.052174e+05 1.052174e+05 1.035276e+05 1.035276e+05 1.018936e+05 1.018936e+05 1.015746e+05 1.022616e+05 1.022616e+05 1.022616e+05 1.029733e+05 1.029733e+05 1.018610e+05 1.017532e+05 1.017532e+05 1.011637e+05 1.011637e+05 1.011637e+05 1.009744e+05 1.009744e+05 1.014174e+05 1.014174e+05 1.014174e+05 1.013899e+05 1.013651e+05 1.013812e+05 1.013651e+05 1.013651e+05 1.013424e+05 1.013510e+05 1.013510e+05 1.013510e+05 1.013528e+05 1.013549e+05 1.013580e+05 1.013580e+05 1.013430e+05 1.013430e+05 1.013412e+05 1.013412e+05 1.013577e+05 1.013577e+05 1.013577e+05 1.013626e+05 1.013626e+05 1.013365e+05 1.013365e+05 1.013365e+05 1.013361e+05 1.013362e+05 1.013459e+05 1.013434e+05 1.014032e+05 1.014032e+05 1.014032e+05 1.014014e+05 1.014303e+05 1.014303e+05 1.014303e+05 1.014128e+05 1.013521e+05 1.013521e+05 1.013521e+05 1.016223e+05 1.016223e+05 1.016223e+05 1.013696e+05 1.013696e+05 1.013696e+05 1.019179e+05 1.019179e+05 1.019179e+05 1.013968e+05 1.013968e+05 1.013968e+05 1.014013e+05 1.014220e+05 1.013994e+05 1.013994e+05 1.013994e+05 1.013644e+05 1.013644e+05 1.013702e+05 1.013314e+05 1.013314e+05 1.013314e+05 1.012542e+05 1.014954e+05 1.014954e+05 1.014954e+05 1.014713e+05 1.013682e+05 1.013682e+05 1.033974e+05 1.033974e+05 1.033974e+05 1.030603e+05 1.016377e+05 1.016377e+05 1.016377e+05 1.016102e+05 1.012182e+05 1.012182e+05 1.012182e+05 1.012547e+05 1.023871e+05 1.023871e+05 1.023871e+05 1.002802e+05 1.002802e+05 1.002802e+05 1.002925e+05 1.021711e+05 1.021711e+05 1.021711e+05 1.019453e+05 1.028032e+05 1.028032e+05 1.028032e+05 1.021122e+05 1.023604e+05 1.023604e+05 1.023604e+05 1.024183e+05 1.114