<?xml version="1.0"?>
 <VTKFile type="UnstructuredGrid" version="1.0" byte_order="LittleEndian" header_type="UInt64">
  <UnstructuredGrid>
    <FieldData>
     <DataArray type="Float64" Name="TimeValue" NumberOfTuples="1" format="ascii">
3e-08
     </DataArray>
    </FieldData>
   <Piece NumberOfPoints="3662" NumberOfCells="3444">
    <PointData>
     <DataArray type="Float64" Name="pointP" format="ascii">
-1.370694e+16 -3.403313e+16 -3.975144e+16 -3.800968e+16 -3.492299e+16 -2.917323e+16 -2.556475e+16 -2.134690e+16 -2.143343e+16 -2.361211e+16 -2.597048e+16 -2.699649e+16 -2.054205e+16 -2.426770e+16 -3.056614e+16 -3.226994e+16 -2.277756e+16 -1.931484e+16 -2.098962e+16 -1.750274e+16 -1.685316e+16 -1.111092e+16 -2.133264e+16 -1.725678e+16 -3.914890e+16 -3.849241e+16 -1.859391e+16 -2.384534e+16 -1.928261e+16 -1.411500e+16 -1.940083e+16 -2.411421e+16 -2.350083e+16 -2.512838e+16 -1.730353e+16 -1.348332e+16 -2.117738e+16 -1.738820e+16 -1.522492e+15 -7.221507e+15 -1.136105e+16 -1.221215e+16 -8.530348e+15 -1.065818e+16 -1.625325e+16 -1.495474e+16 -1.114078e+16 -6.890178e+15 -9.326127e+15 -1.277183e+16 -1.525789e+16 -1.664033e+16 -1.283629e+16 -6.178413e+15 -8.746636e+15 -7.007695e+15 -7.058516e+15 -1.028448e+16 -1.183114e+16 -1.244898e+16 -1.199225e+16 -7.386660e+15 -3.730779e+15 -4.220028e+15 -3.140284e+15 -3.495498e+15 -3.879628e+15 -4.840419e+15 -4.695050e+15 -3.118168e+15 -2.497786e+15 -4.239450e+15 -4.848059e+15 -5.266044e+15 -5.427359e+15 -4.438354e+15 -3.888985e+15 -3.096942e+15 -2.172576e+15 -1.349814e+15 -2.043485e+15 -1.667838e+15 -8.449041e+14 -1.170037e+15 -1.164403e+15 -1.021152e+15 -8.197945e+14 -7.527546e+14 -8.440413e+14 -8.595846e+14 -7.606839e+14 -3.363629e+14 -3.672981e+14 -4.976699e+13 -1.922585e+14 -2.354325e+14 4.137431e+13 1.219671e+13 1.028904e+12 -1.268433e+12 1.066719e+13 -9.410338e+11 2.799487e+13 -8.708735e+13 -4.000638e+13 -3.505264e+14 -4.352127e+14 -6.087139e+14 -6.578481e+14 -6.034307e+14 -3.270981e+14 -7.637183e+14 -9.183371e+14 -1.074645e+15 -9.396085e+14 -5.689042e+14 -1.285599e+15 -1.727223e+15 -1.929295e+15 -1.835287e+15 -2.025321e+15 -1.571274e+15 -1.903279e+15 -1.903279e+15 2.824221e+09 -4.718004e+09 -6.107828e+07 3.985780e+08 7.231470e+08 4.208374e+09 2.997159e+09 2.997159e+09 3.164485e+09 4.523553e+09 9.375344e+09 9.375344e+09 -5.461981e+08 -5.461981e+08 4.523368e+10 2.402706e+10 2.765472e+10 3.437171e+10 9.966950e+10 6.450033e+10 6.450033e+10 2.971639e+11 2.971639e+11 6.766356e+11 8.905999e+11 1.422449e+12 7.151985e+11 2.035221e+12 4.874216e+12 7.921252e+12 1.136798e+13 8.699607e+12 2.794157e+12 1.008678e+13 5.127923e+13 3.142327e+13 5.174142e+13 5.174142e+13 -1.499340e+13 1.128976e+14 1.128976e+14 2.358659e+14 5.122502e+14 5.122502e+14 4.963514e+14 -4.433575e+14 -4.433575e+14 3.081749e+14 4.916270e+14 9.341557e+14 9.341557e+14 3.597531e+15 -2.143256e+15 -9.080417e+14 2.340730e+14 -4.577875e+15 8.663886e+08 2.750642e+11 2.750642e+11 2.750642e+11 5.883341e+11 -1.092175e+11 -1.092175e+11 -1.092175e+11 1.518130e+11 1.518130e+11 5.916345e+11 5.916345e+11 5.916345e+11 6.080672e+11 3.910505e+11 -2.081534e+10 1.699773e+11 1.699773e+11 1.203695e+11 3.590838e+11 3.590838e+11 3.590838e+11 3.030315e+11 1.918782e+11 9.410214e+14 9.410214e+14 9.410214e+14 8.357462e+14 9.593573e+09 9.593573e+09 9.593573e+09 4.656109e+09 1.018120e+10 1.018120e+10 1.169792e+11 1.169792e+11 -1.036529e+10 3.841624e+10 8.663886e+08 8.663886e+08 -7.620620e+08 -7.620620e+08 -7.620620e+08 9.913762e+08 4.531147e+09 4.531147e+09 4.783400e+09 1.983487e+11 1.983487e+11 1.983487e+11 5.320191e+11 4.084823e+11 1.290356e+12 1.239745e+12 1.191515e+11 1.191515e+11 1.191515e+11 -4.095613e+10 -1.269794e+11 1.335265e+12 4.619019e+12 1.335265e+12 1.185333e+13 1.185333e+13 1.185333e+13 6.704750e+13 6.704750e+13 6.704750e+13 5.409368e+13 4.161294e+13 5.558840e+13 4.161294e+13 4.161294e+13 9.263571e+13 9.263571e+13 9.263571e+13 1.522830e+14 9.736036e+14 9.736036e+14 9.736036e+14 9.043544e+14 9.748047e+14 9.748047e+14 9.748047e+14 8.601652e+14 8.601652e+14 -1.719909e+13 -1.719909e+13 -1.719909e+13 -6.555585e+12 -2.056646e+12 -2.056646e+12 -2.056646e+12 9.406521e+12 9.406521e+12 2.339828e+15 2.339828e+15 2.339828e+15 1.889846e+15 9.471223e+13 9.471223e+13 9.471223e+13 4.781233e+13 4.781233e+13 3.560909e+14 2.276952e+14 1.124671e+15 1.124671e+15 1.124671e+15 1.419295e+15 -1.669110e+15 -1.669110e+15 -1.669110e+15 -8.094980e+15 -8.094980e+15 -3.556366e+14 -3.556366e+14 -3.556366e+14 2.462019e+14 -2.331763e+15 -2.331763e+15 -2.331763e+15 2.270473e+14 -1.074645e+15 -1.685438e+15 -1.685438e+15 -1.685438e+15 -2.303027e+15 -2.303027e+15 -2.303027e+15 -4.535955e+15 -2.701539e+14 -2.701539e+14 -2.701539e+14 -8.494054e+14 1.219671e+13 2.644453e+12 2.644453e+12 2.644453e+12 8.911735e+12 -4.115628e+13 -4.115628e+13 -4.115628e+13 3.719429e+13 3.719429e+13 2.276952e+14 2.276952e+14 3.560909e+14 4.040506e+14 4.040506e+14 4.040506e+14 2.133857e+15 2.133857e+15 5.456984e+13 9.809151e+13 9.809151e+13 3.024988e+14 3.024988e+14 3.024988e+14 4.661492e+14 4.661492e+14 1.550159e+14 1.550159e+14 1.550159e+14 3.168342e+14 1.091340e+13 2.636958e+13 1.091340e+13 1.091340e+13 9.581503e+12 1.634394e+11 1.634394e+11 1.634394e+11 8.475505e+11 2.098513e+12 1.339350e+12 1.339350e+12 1.312868e+11 1.312868e+11 -7.048171e+11 -7.048171e+11 6.428808e+11 6.428808e+11 6.428808e+11 2.984198e+12 2.984198e+12 2.800551e+10 2.800551e+10 2.800551e+10 7.623519e+09 2.566649e+10 5.229340e+11 1.313857e+11 1.497893e+13 1.497893e+13 1.497893e+13 1.847032e+13 5.752560e+13 5.752560e+13 5.752560e+13 5.835140e+13 4.621274e+12 4.621274e+12 4.621274e+12 6.952364e+13 6.952364e+13 6.952364e+13 -1.698642e+09 -1.698642e+09 -1.698642e+09 1.989317e+14 1.989317e+14 1.989317e+14 6.950505e+13 6.950505e+13 6.950505e+13 5.642101e+13 3.798285e+13 -3.554215e+12 -3.554215e+12 -3.554215e+12 2.850389e+13 2.850389e+13 2.079015e+13 6.269431e+13 6.269431e+13 6.269431e+13 9.186277e+13 2.342859e+13 2.342859e+13 2.342859e+13 1.938123e+13 8.623456e+12 8.623456e+12 6.009158e+14 6.009158e+14 6.009158e+14 3.663810e+14 1.500693e+13 1.500693e+13 1.500693e+13 7.738991e+13 3.580390e+13 3.580390e+13 3.580390e+13 2.239771e+13 3.843824e+14 3.843824e+14 3.843824e+14 3.144798e+14 3.144798e+14 3.144798e+14 2.601094e+14 4.637178e+13 4.637178e+13 4.637178e+13 6.275811e+13 -2.506935e+13 -2.506935e+13 -2.506935e+13 2.800796e+13 7.592192e+13 7.592192e+13 7.592192e+13 8.601534e+13 2.603849e+15 2.603849e+15 2.603849e+15 -4.237226e+15 -4.237226e+15 -4.237226e+15 -2.394887e+15 -1.047994e+16 -1.047994e+16 -1.047994e+16 -7.051705e+15 -7.600386e+15 -7.600386e+15 -3.315154e+15 -2.799329e+15 -2.799329e+15 -7.163689e+14 -3.522956e+14 -3.522956e+14 -1.377181e+14 -2.329635e+14 -2.329635e+14 -2.329635e+14 -1.546588e+14 -3.971389e+14 -3.971389e+14 -3.971389e+14 -9.255573e+15 -9.255573e+15 -9.764779e+15 -1.493185e+15 -1.493185e+15 -3.393158e+15 -3.014192e+14 -1.097894e+16 -1.258558e+16 -3.004364e+13 -3.004364e+13 -4.766362e+13 -6.549352e+15 -6.549352e+15 -6.549352e+15 -1.760367e+16 -1.442257e+15 -1.442257e+15 -5.865978e+15 -5.865978e+15 -5.865978e+15 2.426300e+14 2.426300e+14 2.426300e+14 -1.384335e+15 -1.384335e+15 2.332021e+15 2.332021e+15 2.332021e+15 -6.013722e+12 1.982569e+15 1.982569e+15 1.982569e+15 1.994484e+15 1.994484e+15 1.003074e+12 1.003074e+12 1.003074e+12 4.122464e+12 4.122464e+12 4.183140e+14 4.183140e+14 2.074714e+14 2.074714e+14 3.158275e+15 3.158275e+15 3.158275e+15 1.328602e+15 1.328602e+15 1.328602e+15 1.767864e+15 -7.813948e+12 -7.813948e+12 -7.813948e+12 2.968429e+12 2.968429e+12 1.991951e+14 1.991951e+14 1.991951e+14 1.118440e+14 1.118440e+14 2.471520e+13 2.471520e+13 2.471520e+13 6.475969e+13 6.475969e+13 2.026892e+14 2.026892e+14 2.026892e+14 3.835304e+14 3.835304e+14 2.214922e+13 2.214922e+13 2.214922e+13 3.938144e+14 1.164030e+14 1.164030e+14 6.037420e+14 6.037420e+14 6.037420e+14 1.554649e+14 1.554649e+14 7.498735e+12 7.498735e+12 7.498735e+12 3.314947e+12 3.314947e+12 2.965905e+12 2.965905e+12 2.965905e+12 -5.509889e+12 -5.509889e+12 4.237849e+12 4.237849e+12 6.096470e+11 6.096470e+11 1.634803e+12 1.634803e+12 1.580058e+13 1.580058e+13 3.884175e+12 8.704030e+11 8.704030e+11 3.419700e+12 3.419700e+12 3.419700e+12 4.762223e+12 4.762223e+12 -1.890259e+11 -1.890259e+11 -1.999975e+10 -1.999975e+10 -1.999975e+10 -1.075289e+11 4.597064e+11 1.783551e+10 1.650196e+10 8.803348e+11 8.803348e+11 8.803348e+11 6.512642e+11 6.512642e+11 -8.511202e+11 -8.511202e+11 -6.106513e+12 -5.100545e+12 -2.633323e+12 2.368373e+14 2.368373e+14 2.368373e+14 2.743103e+14 -2.634919e+14 -2.634919e+14 5.524491e+14 -2.177959e+14 -2.177959e+14 -2.177959e+14 -7.834070e+14 -7.834070e+14 -7.834070e+14 -9.800791e+14 -5.316637e+14 4.875825e+14 4.875825e+14 4.875825e+14 -9.235072e+14 -3.269635e+14 -6.144183e+14 -6.144183e+14 -5.827850e+15 -5.827850e+15 -3.879628e+15 -1.244200e+15 -1.244200e+15 -1.244200e+15 -5.174490e+15 -5.174490e+15 -5.174490e+15 -1.041092e+16 -3.975144e+16 -1.691069e+16 -1.691069e+16 -7.339911e+15 -7.339911e+15 -7.339911e+15 -1.951825e+16 -2.281104e+12 -2.281104e+12 1.099925e+12 -2.354325e+14 -2.296702e+16 -2.296702e+16 -6.350222e+15 -6.350222e+15 -3.231383e+14 -3.231383e+14 -1.173054e+14 -1.173054e+14 -1.173054e+14 -2.643690e+16 -2.643690e+16 -2.336588e+16 -1.624687e+15 -1.624687e+15 -1.019645e+15 -2.406573e+15 -1.421250e+16 -1.554623e+16 -1.554623e+16 -1.105933e+16 -8.010281e+14 -8.010281e+14 -8.010281e+14 -3.886323e+15 -1.664033e+16 -1.391364e+16 -3.800968e+16 -6.782639e+15 -4.759854e+15 -4.759854e+15 -3.396503e+15 -3.396503e+15 -3.396503e+15 -9.147080e+15 3.578585e+12 3.578585e+12 -5.615561e+13 -5.615561e+13 -1.105640e+15 -5.286583e+15 -5.286583e+15 -4.298160e+15 -1.645584e+15 -1.645584e+15 -1.645584e+15 -7.637183e+14 -2.134690e+16 -3.275212e+15 -3.689011e+15 -3.689011e+15 -3.689011e+15 -3.105999e+15 -3.166722e+14 -3.166722e+14 -1.679367e+14 -3.076160e+15 -3.076160e+15 -6.900681e+15 -2.563464e+13 -2.563464e+13 -3.586758e+14 -3.586758e+14 -1.963532e+16 -1.522492e+15 -5.129364e+14 -3.656775e+15 -9.410568e+15 -9.410568e+15 -9.661667e+14 -5.735373e+14 -3.219547e+14 -3.219547e+14 1.996985e+13 1.996985e+13 2.073900e+13 2.073900e+13 -6.050024e+15 -6.050024e+15 -2.930238e+15 -5.459569e+15 -1.583058e+15 -1.583058e+15 -2.091475e+15 -2.415775e+15 -2.415775e+15 -2.415775e+15 -7.687820e+15 -7.687820e+15 -3.568630e+13 -1.068394e+14 -1.068394e+14 -8.148628e+15 -3.875529e+15 -1.321302e+16 -1.988737e+14 -1.571274e+15 -2.025321e+15 -8.203780e+15 -2.830972e+13 1.376215e+14 1.376215e+14 1.376215e+14 2.127389e+14 -7.899508e+14 -5.326471e+14 1.121013e+14 1.121013e+14 -6.890178e+15 -6.684938e+15 -4.559674e+12 -4.559674e+12 8.640566e+14 8.640566e+14 2.128479e+14 2.128479e+14 2.675590e+13 6.022419e+14 6.022419e+14 2.049453e+13 1.235450e+13 -8.227662e+13 -9.422806e+14 -8.815038e+14 -8.815038e+14 7.964620e+14 7.964620e+14 -2.430902e+13 7.053736e+13 -4.768839e+15 -1.577488e+15 -2.974671e+14 -5.688086e+14 -1.495823e+15 1.115844e+14 1.963037e+12 -1.820352e+11 1.431550e+13 4.100483e+14 7.351150e+14 -1.520238e+15 -1.520238e+15 -2.176643e+14 8.434850e+14 -9.232259e+15 5.262941e+11 2.050382e+15 2.050382e+15 -6.267160e+13 -6.267160e+13 -6.267160e+13 2.119962e+13 3.468629e+14 -8.124046e+12 9.988767e+14 2.550571e+15 3.125771e+15 3.125771e+15 3.125771e+15 2.975810e+14 2.975810e+14 2.975810e+14 1.392574e+15 -4.417108e+15 7.453814e+13 1.380450e+14 -4.757095e+13 -4.757095e+13 -4.757095e+13 1.259064e+15 1.259064e+15 1.259064e+15 1.164390e+15 7.169401e+14 7.169401e+14 1.342910e+15 -9.301642e+13 -2.745994e+14 3.095804e+13 1.758340e+12 6.139193e+13 6.139193e+13 1.070724e+14 7.864278e+13 7.864278e+13 1.359725e+14 1.359725e+14 4.322676e+12 4.014058e+14 2.975075e+13 6.548753e+14 8.184271e+14 3.992552e+15 3.992552e+15 3.236539e+15 3.236539e+15 -5.318848e+15 -1.549830e+15 -2.016864e+14 2.049411e+15 2.049411e+15 9.533174e+14 9.533174e+14 2.633487e+15 3.313096e+14 3.313096e+14 3.313096e+14 5.012485e+14 2.169438e+14 7.375314e+13 7.375314e+13 7.375314e+13 1.089177e+14 1.089177e+14 1.000885e+15 1.533428e+15 1.952680e+15 1.952680e+15 2.126035e+15 2.965961e+14 2.559484e+14 2.673367e+13 2.673367e+13 7.161671e+14 1.140928e+15 1.611839e+15 8.623788e+13 8.623788e+13 8.623788e+13 7.143094e+13 5.108134e+15 5.108134e+15 5.795189e+15 2.373178e+15 9.821633e+14 9.821633e+14 1.808074e+13 1.808074e+13 1.808074e+13 1.078831e+13 5.721125e+13 4.771604e+13 -1.686696e+12 -1.686696e+12 5.236092e+13 5.467709e+14 5.467709e+14 8.825727e+14 1.137521e+15 1.518180e+14 1.518180e+14 2.169921e+15 2.169921e+15 4.422648e+14 4.439320e+14 4.439320e+14 5.644389e+13 1.095876e+14 1.095876e+14 3.006666e+14 1.516402e+14 3.294503e+14 1.620212e+15 1.970457e+13 1.970457e+13 1.970457e+13 1.344875e+13 2.918154e+15 2.733179e+15 3.267999e+14 3.267999e+14 1.282922e+15 1.282922e+15 1.282922e+15 1.271875e+15 1.271875e+15 1.271875e+15 5.818182e+14 4.534900e+12 -1.823686e+13 -1.823686e+13 -1.823686e+13 9.925681e+13 3.796639e+15 1.303944e+13 -5.619825e+12 6.762325e+14 6.437199e+14 6.437199e+14 1.298917e+15 7.822745e+14 2.463257e+15 1.885201e+15 1.885201e+15 4.614878e+14 1.670996e+15 1.670996e+15 -1.389089e+15 -2.548737e+14 1.655172e+15 2.025182e+15 2.025182e+15 1.319892e+15 5.853264e+14 5.853264e+14 6.111663e+14 6.111663e+14 2.407126e+15 2.407126e+15 1.404958e+15 1.404958e+15 7.059617e+13 2.299294e+15 1.271647e+15 4.983453e+14 4.983453e+14 1.164970e+15 1.792247e+14 1.401132e+15 2.074893e+15 1.089706e+15 1.089706e+15 3.006406e+13 3.991291e+13 1.201663e+15 8.764882e+14 1.108311e+15 1.108311e+15 2.614205e+13 9.431295e+14 9.431295e+14 1.958759e+15 1.730062e+14 1.730062e+14 1.730062e+14 1.311957e+13 6.124019e+14 -8.141706e+13 -8.141706e+13 3.409191e+13 8.650980e+14 8.650980e+14 9.120266e+14 -3.176171e+14 -3.176171e+14 -3.176171e+14 3.489465e+14 1.492762e+15 4.961305e+14 7.300769e+14 1.286423e+15 3.474205e+14 2.100197e+14 2.100197e+14 3.028224e+13 1.201855e+13 1.201855e+13 3.998624e+13 1.555240e+13 -3.590376e+12 -1.239822e+13 -1.239822e+13 9.987232e+14 9.987232e+14 9.987232e+14 1.670649e+15 8.060516e+14 8.060516e+14 7.092488e+13 1.366140e+15 6.941173e+14 1.556412e+14 1.556412e+14 2.108918e+14 2.108918e+14 -2.042811e+13 2.313185e+15 2.313185e+15 6.005476e+13 5.897985e+14 1.182884e+15 1.182884e+15 2.324304e+14 2.324304e+14 3.720885e+14 3.720885e+14 4.637418e+14 2.693743e+14 3.946909e+12 8.278147e+14 1.078940e+15 1.078940e+15 1.016362e+15 6.494811e+14 6.494811e+14 2.308321e+14 2.308321e+14 2.165404e+14 1.869854e+14 3.146892e+13 -1.391903e+13 2.871335e+14 1.919910e+14 -8.665224e+12 2.109310e+14 2.109310e+14 2.109310e+14 1.931967e+14 1.931967e+14 1.768752e+15 4.748542e+12 4.748542e+12 4.748542e+12 4.087607e+13 4.087607e+13 7.322192e+14 7.322192e+14 9.916372e+14 1.072362e+15 2.011352e+15 1.936931e+14 3.632483e+14 3.632483e+14 4.657693e+14 2.578022e+14 5.752976e+14 5.752976e+14 3.420596e+14 2.703347e+12 2.703347e+12 2.703347e+12 -3.504208e+11 7.879546e+14 1.494960e+14 3.585403e+13 6.192967e+13 3.426253e+13 5.965758e+14 4.245099e+14 2.236690e+13 1.342156e+15 3.253039e+14 3.253039e+14 3.253039e+14 6.515812e+14 -2.559018e+13 1.959743e+15 5.793278e+14 6.524706e+14 2.915722e+14 2.915722e+14 2.915722e+14 5.296071e+13 5.296071e+13 5.296071e+13 8.799118e+13 8.799118e+13 -1.227296e+14 4.643841e+14 4.643841e+14 4.643841e+14 8.104454e+11 2.286346e+14 2.286346e+14 2.286346e+14 2.493719e+14 2.395004e+14 2.395004e+14 2.395004e+14 1.409171e+13 1.409171e+13 1.409171e+13 -4.277114e+13 5.918733e+12 5.677507e+14 5.677507e+14 2.306718e+14 1.224417e+15 4.862086e+13 1.831474e+13 1.831474e+13 1.831474e+13 1.417692e+14 6.277946e+14 1.614820e+14 8.833171e+12 8.714383e+12 1.501621e+14 1.472220e+12 3.531235e+14 3.531235e+14 5.150823e+14 -1.120509e+14 2.834681e+14 3.265259e+13 7.918783e+14 1.372817e+13 1.372817e+13 3.536647e+13 3.826347e+13 5.379992e+13 5.379992e+13 5.460244e+13 1.509968e+13 2.897015e+11 2.897015e+11 1.542667e+14 1.542667e+14 2.392756e+14 2.998577e+14 6.426851e+14 4.703132e+14 2.478415e+13 2.594358e+13 3.235642e+14 5.504329e+14 1.233484e+14 1.520981e+13 1.374186e+13 1.374186e+13 1.374186e+13 5.695986e+14 5.695986e+14 1.944679e+14 1.944679e+14 1.388047e+14 1.491464e+14 2.401982e+14 1.967681e+14 1.967681e+14 -1.407873e+12 -1.407873e+12 8.392687e+12 -1.073130e+13 -1.073130e+13 6.929379e+13 -8.358889e+12 -4.061331e+12 2.618086e+13 1.196681e+12 2.123947e+13 1.899792e+13 1.923088e+14 1.071833e+14 1.071833e+14 1.071833e+14 1.145850e+14 2.701150e+14 2.332209e+14 4.378976e+13 3.386804e+14 9.830457e+13 9.830457e+13 9.902122e+13 7.294665e+13 7.294665e+13 3.366487e+13 3.366487e+13 1.138895e+13 6.057030e+12 6.501540e+12 -5.083367e+12 4.113576e+13 -4.134507e+12 5.664991e+13 5.664991e+13 2.471769e+13 2.471769e+13 2.471769e+13 -2.366278e+13 2.210250e+14 9.601527e+13 6.028000e+13 -4.683301e+12 1.819660e+13 9.828234e+13 5.355695e+12 5.355695e+12 7.024097e+13 7.024097e+13 -2.359572e+11 -2.359572e+11 3.507475e+13 1.957174e+14 1.972712e+14 1.972712e+14 8.653032e+13 -3.798389e+08 4.209930e+13 1.091606e+14 2.536511e+13 2.536511e+13 1.081017e+13 1.903469e+13 2.024926e+13 1.157220e+14 1.157220e+14 9.434226e+12 9.434226e+12 3.128619e+10 2.126904e+11 2.126904e+11 8.938719e+12 5.876561e+13 3.379841e+12 2.443318e+13 1.948386e+13 8.766643e+13 8.184826e+12 -1.834728e+12 2.630319e+13 2.630319e+13 4.509531e+13 2.374048e+12 9.581503e+12 5.371110e+11 5.371110e+11 5.371110e+11 -1.862936e+11 1.033804e+13 1.033804e+13 2.893173e+13 2.893173e+13 -1.386178e+12 -1.386178e+12 1.107211e+13 -1.880524e+11 1.655373e+12 1.156196e+13 1.156196e+13 1.156196e+13 1.108910e+13 2.551150e+12 2.551150e+12 9.036165e+12 9.036165e+12 7.119007e+12 7.119007e+12 4.860811e+12 4.253370e+12 4.253370e+12 4.253370e+12 7.225809e+12 2.984747e+12 4.469284e+11 4.469284e+11 6.220704e+10 -6.447416e+10 1.335265e+12 9.189187e+11 7.050012e+11 7.050012e+11 7.023941e+12 1.164961e+13 2.339805e+11 4.291495e+11 1.441433e+12 -4.529882e+11 -4.529882e+11 1.637191e+12 1.198407e+12 1.088270e+13 3.028451e+10 3.028451e+10 3.668025e+11 5.857185e+12 5.857185e+12 1.263840e+12 -4.279416e+11 -5.166244e+11 -5.166244e+11 -5.166244e+11 -6.822979e+11 5.958948e+11 1.765493e+11 -2.559265e+12 4.116254e+11 1.765493e+11 -8.196378e+11 -1.879927e+11 -1.879927e+11 2.030272e+11 9.417089e+10 3.193230e+10 4.195874e+11 1.022536e+11 1.022536e+11 1.022536e+11 3.322042e+09 1.161288e+10 1.161288e+10 1.161288e+10 3.042231e+10 3.042231e+10 1.280963e+10 -1.182485e+10 8.829397e+10 1.033283e+10 5.459963e+09 2.804496e+10 1.198384e+10 9.859350e+09 1.454082e+10 1.454082e+10 1.248011e+10 1.248011e+10 2.755847e+08 -8.338119e+09 -8.338119e+09 -8.338119e+09 2.873928e+09 2.873928e+09 2.336422e+09 2.336422e+09 2.336422e+09 4.110783e+13 -2.339886e+12 -2.339886e+12 -2.339886e+12 -2.081534e+10 -2.081534e+10 6.236677e+12 6.236677e+12 6.236677e+12 4.193729e+13 4.193729e+13 1.680884e+09 3.214134e+08 4.033226e+13 4.033226e+13 2.196697e+13 -2.104342e+10 3.407158e+13 5.396959e+13 2.430628e+13 1.783551e+10 8.392201e+10 -2.092771e+09 1.831072e+10 1.831072e+10 1.922093e+10 4.630985e+14 3.328737e+12 3.328737e+12 3.328737e+12 9.524659e+11 -9.803298e+11 -9.803298e+11 -9.803298e+11 5.325989e+12 4.395444e+12 4.395444e+12 6.652471e+14 2.023644e+12 2.023644e+12 2.023644e+12 2.777535e+12 2.899820e+10 -2.841893e+14 -2.841893e+14 -2.841893e+14 6.014347e+11 3.621824e+14 3.621824e+14 4.702270e+13 4.702270e+13 4.702270e+13 6.309354e+12 6.309354e+12 6.309354e+12 7.162865e+12 5.942430e+12 5.942430e+12 -8.202767e+11 4.343502e+13 2.985993e+12 6.550395e+12 3.714961e+12 1.170086e+13 1.653743e+12 2.647656e+11 7.498295e+12 7.554160e+11 3.637652e+11 2.098379e+11 2.098379e+11 9.893999e+10 9.893999e+10 9.893999e+10 2.997159e+09 -4.001973e+14 8.577996e+12 8.577996e+12 1.292270e+13 3.872605e+12 1.406432e+12 1.406432e+12 2.708754e+14 2.708754e+14 -8.187351e+12 -8.187351e+12 2.203546e+13 4.183381e+12 2.989968e+12 7.517041e+11 5.794472e+10 5.794472e+10 3.838128e+10 3.484370e+10 -3.110568e+14 -3.110568e+14 9.396334e+11 5.698930e+10 5.698930e+10 3.916428e+11 2.977674e+11 1.320992e+11 2.552427e+10 2.552427e+10 2.552427e+10 3.009909e+10 3.009909e+10 5.732667e+08 2.127836e+10 2.127836e+10 2.127836e+10 3.555717e+10 3.555717e+10 1.903028e+11 1.770980e+10 1.770980e+10 8.703409e+09 1.056129e+10 1.056129e+10 2.180699e+10 5.970503e+09 8.674755e+09 8.485563e+09 8.485563e+09 8.485563e+09 3.372870e+09 2.411073e+10 -5.347485e+09 8.112700e+09 3.115026e+13 -2.373974e+09 -4.208983e+09 -1.332936e+09 4.208374e+09 3.389395e+13 7.989743e+13 7.989743e+13 4.764867e+14 4.764867e+14 -1.585911e+14 -1.585911e+14 -1.585911e+14 -1.304886e+14 6.151902e+14 6.151902e+14 6.151902e+14 1.480886e+14 4.086163e+09 2.445521e+09 2.445521e+09 2.445521e+09 -2.271340e+09 4.241654e+10 4.956094e+10 8.083704e+11 2.542722e+10 4.783538e+10 3.895348e+10 4.717460e+10 9.607397e+10 8.162724e+10 2.610523e+10 8.795325e+09 1.737691e+10 1.345939e+10 1.345939e+10 7.358819e+09 7.358819e+09 2.462680e+10 1.564074e+10 7.985252e+09 5.050199e+09 2.221772e+13 1.086281e+14 8.546827e+13 1.399015e+15 -1.370694e+16 -2.396521e+16 -2.846028e+16 -2.937160e+16 -2.794469e+16 -2.360831e+16 -2.176988e+16 -2.257535e+16 -2.411704e+16 -2.531325e+16 -1.698624e+16 -1.043124e+10 -1.043124e+10 -1.077923e+09 -1.077923e+09 4.517284e+08 2.883295e+09 1.864334e+09 1.864334e+09 1.864334e+09 3.070302e+09 6.723510e+09 6.723510e+09 1.584347e+09 1.584347e+09 1.584347e+09 1.081236e+11 1.081236e+11 1.081236e+11 2.399406e+10 2.399406e+10 -4.121516e+09 -4.121516e+09 -4.121516e+09 4.937531e+09 -1.043124e+10 -7.433195e+09 -7.433195e+09 7.393096e+09 4.303435e+10 4.303435e+10 1.531353e+15 1.531353e+15 1.531353e+15 -7.634352e+15 -7.634352e+15 -6.510809e+09 9.501556e+09 9.501556e+09 -3.508253e+15 -3.508253e+15 -9.747398e+14 1.819168e+14 1.819168e+14 1.819168e+14 1.279283e+14 1.279283e+14 1.279283e+14 3.696836e+13 3.696836e+13 1.638829e+10 1.701548e+15 1.701548e+15 1.701548e+15 1.145283e+15 -1.403315e+16 -1.403315e+16 -1.403315e+16 -5.438071e+15 9.464667e+14 -2.662198e+15 -2.662198e+15 -2.662198e+15 -8.512425e+15 -6.097918e+15 -6.097918e+15 -6.097918e+15 -8.166204e+15 8.048678e+13 4.611098e+13 8.048678e+13 8.048678e+13 1.329337e+11 1.329337e+11 -5.664894e+09 3.245796e+14 3.245796e+14 -1.812250e+16 -2.531325e+16 -8.551231e+15 -8.551231e+15 -8.166204e+15 -9.080417e+14 -2.143256e+15 2.284932e+15 1.941168e+15 1.894907e+15 1.894907e+15 3.573823e+15 3.112234e+14 7.663939e+14 3.573823e+15 1.008306e+15 2.196863e+15 2.196863e+15 6.694051e+14 6.694051e+14 2.683134e+15 1.020586e+15 2.329214e+15 1.406132e+15 1.406132e+15 1.212426e+15 9.448560e+14 6.384868e+14 4.593109e+14 4.593109e+14 4.611098e+13 8.806565e+13 8.806565e+13 4.797783e+13 4.797783e+13 6.055305e+12 -1.004738e+13 1.191609e+13 6.597285e+10 -5.664894e+09 -5.664894e+09 6.730610e+09 6.730610e+09 6.730610e+09 6.212669e+09 1.005634e+10 1.956958e+10 1.956958e+10 1.956958e+10 2.423994e+10 1.644103e+10 1.644103e+10 1.644103e+10 2.584705e+10 2.402706e+10 4.473780e+11 4.473780e+11 4.473780e+11 4.392806e+11 4.845176e+12 4.845176e+12 4.845176e+12 4.337842e+12 2.826476e+12 4.842024e+11 4.842024e+11 5.296891e+11 1.920448e+13 1.920448e+13 1.920448e+13 1.008678e+13 1.008678e+13 1.295124e+13 1.295124e+13 1.295124e+13 9.469005e+10 9.469005e+10 1.072950e+13 1.072950e+13 1.072950e+13 9.171223e+12 9.171223e+12 1.097713e+14 1.097713e+14 1.097713e+14 3.101276e+13 3.101276e+13 3.101276e+13 2.479584e+12 2.479584e+12 2.479584e+12 9.116085e+10 2.978010e+13 1.813304e+13 6.135045e+12 1.136798e+13 7.770923e+13 4.932123e+13 4.932123e+13 3.659696e+12 3.659696e+12 8.328689e+12 8.720507e+12 1.274353e+13 1.274353e+13 1.274353e+13 1.338437e+14 3.245796e+14 1.376242e+13 1.199836e+12 1.199836e+12 1.199836e+12 3.340341e+13 9.329804e+12 1.697256e+12 1.126595e+12 4.176478e+11 3.475628e+12 2.146720e+11 2.804010e+11 6.346465e+10 6.346465e+10 3.862172e+09 4.963514e+14 4.963514e+14 1.406527e+13 1.422449e+12 1.422449e+12 2.018126e+13 4.406605e+14 2.330154e+10 2.330154e+10 8.065831e+10 8.065831e+10 8.065831e+10 1.706595e+13 4.054972e+13 1.064876e+11 6.694865e+11 1.269272e+11 1.641914e+10 6.727821e+10 6.727821e+10 6.727821e+10 1.686033e+10 1.686033e+10 2.121989e+10 5.976587e+10 5.976587e+10 3.036610e+10 5.133344e+10 1.638829e+10 1.082501e+10 1.082501e+10 1.337027e+10 9.473107e+09 2.005487e+13 3.656612e+14 3.656612e+14 1.109065e+14 1.109065e+14 6.548979e+13 4.463824e+09 7.151985e+11 2.542890e+13 5.174142e+13 -5.434912e+12 9.927776e+13 9.927776e+13 9.648841e+13 9.648841e+13 9.648841e+13 1.343450e+14 -2.493510e+14 -4.433575e+14 3.081749e+14 3.081749e+14 4.296383e+14 9.899518e+14 6.450033e+10 2.971639e+11 3.730788e+13 4.916270e+14 6.766356e+11 5.150872e+11 5.796351e+10 9.966950e+10 1.172477e+11 1.035984e+11 4.523368e+10 3.444584e+11 2.306783e+10 2.306783e+10 2.825550e+10 2.293164e+10 9.375344e+09 5.733032e+09 5.733032e+09 4.523553e+09 2.945104e+10 4.976626e+08 6.070180e+13 7.296751e+13 2.156878e+14 1.265533e+15 1.447881e+14 3.575126e+14 1.279685e+14 5.297905e+14 3.223937e+14 2.342397e+09 -1.077923e+09 -1.370694e+16 -3.403313e+16 -3.975144e+16 -3.800968e+16 -3.492299e+16 -2.917323e+16 -2.556475e+16 -2.134690e+16 -2.143343e+16 -2.361211e+16 -2.597048e+16 -2.699649e+16 -2.054205e+16 -2.426770e+16 -3.056614e+16 -3.226994e+16 -2.277756e+16 -1.931484e+16 -2.098962e+16 -1.750274e+16 -1.685316e+16 -1.111092e+16 -2.133264e+16 -1.725678e+16 -3.914890e+16 -3.849241e+16 -1.859391e+16 -2.384534e+16 -1.928261e+16 -1.411500e+16 -1.940083e+16 -2.411421e+16 -2.350083e+16 -2.512838e+16 -1.730353e+16 -1.348332e+16 -2.117738e+16 -1.738820e+16 -1.522492e+15 -7.221507e+15 -1.136105e+16 -1.221215e+16 -8.530348e+15 -1.065818e+16 -1.625325e+16 -1.495474e+16 -1.114078e+16 -6.890178e+15 -9.326127e+15 -1.277183e+16 -1.525789e+16 -1.664033e+16 -1.283629e+16 -6.178413e+15 -8.746636e+15 -7.007695e+15 -7.058516e+15 -1.028448e+16 -1.183114e+16 -1.244898e+16 -1.199225e+16 -7.386660e+15 -3.730779e+15 -4.220028e+15 -3.140284e+15 -3.495498e+15 -3.879628e+15 -4.840419e+15 -4.695050e+15 -3.118168e+15 -2.497786e+15 -4.239450e+15 -4.848059e+15 -5.266044e+15 -5.427359e+15 -4.438354e+15 -3.888985e+15 -3.096942e+15 -2.172576e+15 -1.349814e+15 -2.043485e+15 -1.667838e+15 -8.449041e+14 -1.170037e+15 -1.164403e+15 -1.021152e+15 -8.197945e+14 -7.527546e+14 -8.440413e+14 -8.595846e+14 -7.606839e+14 -3.363629e+14 -3.672981e+14 -4.976699e+13 -1.922585e+14 -2.354325e+14 4.137431e+13 1.219671e+13 1.028904e+12 -1.268433e+12 1.066719e+13 -9.410338e+11 2.799487e+13 -8.708735e+13 -4.000638e+13 -3.505264e+14 -4.352127e+14 -6.087139e+14 -6.578481e+14 -6.034307e+14 -3.270981e+14 -7.637183e+14 -9.183371e+14 -1.074645e+15 -9.396085e+14 -5.689042e+14 -1.285599e+15 -1.727223e+15 -1.929295e+15 -1.835287e+15 -2.025321e+15 -1.571274e+15 -1.903279e+15 -1.903279e+15 2.824221e+09 2.824221e+09 2.524314e+08 3.985780e+08 7.231470e+08 4.208374e+09 2.997159e+09 2.997159e+09 3.164485e+09 4.523553e+09 9.375344e+09 9.375344e+09 -5.461981e+08 -5.461981e+08 4.523368e+10 2.402706e+10 2.765472e+10 3.437171e+10 9.966950e+10 6.450033e+10 6.450033e+10 2.971639e+11 2.971639e+11 6.766356e+11 8.905999e+11 1.422449e+12 7.151985e+11 2.035221e+12 4.874216e+12 7.921252e+12 1.136798e+13 8.699607e+12 2.794157e+12 1.008678e+13 5.127923e+13 3.142327e+13 5.174142e+13 5.174142e+13 -1.499340e+13 1.128976e+14 1.128976e+14 2.358659e+14 5.122502e+14 5.122502e+14 4.963514e+14 -4.433575e+14 -4.433575e+14 3.081749e+14 4.916270e+14 9.341557e+14 9.341557e+14 3.597531e+15 -2.143256e+15 -9.080417e+14 2.340730e+14 -4.577875e+15 8.663886e+08 2.750642e+11 2.750642e+11 2.750642e+11 5.883341e+11 -1.092175e+11 -1.092175e+11 -1.092175e+11 1.518130e+11 1.518130e+11 5.916345e+11 5.916345e+11 5.916345e+11 6.080672e+11 3.910505e+11 -2.081534e+10 1.699773e+11 1.699773e+11 1.203695e+11 3.590838e+11 3.590838e+11 3.590838e+11 3.030315e+11 1.918782e+11 9.410214e+14 9.410214e+14 9.410214e+14 8.357462e+14 9.593573e+09 9.593573e+09 9.593573e+09 4.656109e+09 1.018120e+10 1.018120e+10 1.169792e+11 1.169792e+11 -1.036529e+10 3.841624e+10 8.663886e+08 8.663886e+08 -7.620620e+08 -7.620620e+08 -7.620620e+08 9.913762e+08 4.531147e+09 4.531147e+09 4.783400e+09 1.983487e+11 1.983487e+11 1.983487e+11 5.320191e+11 4.084823e+11 1.290356e+12 1.239745e+12 1.191515e+11 1.191515e+11 1.191515e+11 -4.095613e+10 -1.269794e+11 1.335265e+12 4.619019e+12 1.335265e+12 1.185333e+13 1.185333e+13 1.185333e+13 6.704750e+13 6.704750e+13 6.704750e+13 5.409368e+13 4.161294e+13 5.558840e+13 4.161294e+13 4.161294e+13 9.263571e+13 9.263571e+13 9.263571e+13 1.522830e+14 9.736036e+14 9.736036e+14 9.736036e+14 9.043544e+14 9.748047e+14 9.748047e+14 9.748047e+14 8.601652e+14 8.601652e+14 -1.719909e+13 -1.719909e+13 -1.719909e+13 -6.555585e+12 -2.056646e+12 -2.056646e+12 -2.056646e+12 9.406521e+12 9.406521e+12 2.339828e+15 2.339828e+15 2.339828e+15 1.889846e+15 9.471223e+13 9.471223e+13 9.471223e+13 4.781233e+13 4.781233e+13 3.560909e+14 2.276952e+14 1.124671e+15 1.124671e+15 1.124671e+15 1.419295e+15 -1.669110e+15 -1.669110e+15 -1.669110e+15 -8.094980e+15 -8.094980e+15 -3.556366e+14 -3.556366e+14 -3.556366e+14 2.462019e+14 -2.331763e+15 -2.331763e+15 -2.331763e+15 2.270473e+14 -1.074645e+15 -1.685438e+15 -1.685438e+15 -1.685438e+15 -2.303027e+15 -2.303027e+15 -2.303027e+15 -4.535955e+15 -2.701539e+14 -2.701539e+14 -2.701539e+14 -8.494054e+14 1.219671e+13 2.644453e+12 2.644453e+12 2.644453e+12 8.911735e+12 -4.115628e+13 -4.115628e+13 -4.115628e+13 3.719429e+13 3.719429e+13 2.276952e+14 2.276952e+14 3.560909e+14 4.040506e+14 4.040506e+14 4.040506e+14 2.133857e+15 2.133857e+15 5.456984e+13 9.809151e+13 9.809151e+13 3.024988e+14 3.024988e+14 3.024988e+14 4.661492e+14 4.661492e+14 1.550159e+14 1.550159e+14 1.550159e+14 3.168342e+14 1.091340e+13 2.636958e+13 1.091340e+13 1.091340e+13 9.581503e+12 1.634394e+11 1.634394e+11 1.634394e+11 8.475505e+11 2.098513e+12 1.339350e+12 1.339350e+12 1.312868e+11 1.312868e+11 -7.048171e+11 -7.048171e+11 6.428808e+11 6.428808e+11 6.428808e+11 2.984198e+12 2.984198e+12 2.800551e+10 2.800551e+10 2.800551e+10 7.623519e+09 2.566649e+10 5.229340e+11 1.313857e+11 1.497893e+13 1.497893e+13 1.497893e+13 1.847032e+13 5.752560e+13 5.752560e+13 5.752560e+13 5.835140e+13 4.621274e+12 4.621274e+12 4.621274e+12 6.952364e+13 6.952364e+13 6.952364e+13 -1.698642e+09 -1.698642e+09 -1.69864