<?xml version="1.0"?>
 <VTKFile type="UnstructuredGrid" version="1.0" byte_order="LittleEndian" header_type="UInt64">
  <UnstructuredGrid>
    <FieldData>
     <DataArray type="Float64" Name="TimeValue" NumberOfTuples="1" format="ascii">
3e-08
     </DataArray>
    </FieldData>
   <Piece NumberOfPoints="3468" NumberOfCells="3392">
    <PointData>
     <DataArray type="Float64" Name="pointP" format="ascii">
8.346742e+10 1.584676e+11 1.988753e+11 -5.516065e+11 -1.378899e+11 4.027648e+11 4.027648e+11 -1.683679e+11 -3.467845e+11 4.500173e+11 4.500173e+11 2.573286e+11 2.826068e+11 9.775047e+10 9.775047e+10 -8.274860e+10 -2.015916e+11 -7.285478e+10 1.139820e+11 1.000721e+11 -9.268326e+09 6.668315e+10 3.888955e+10 3.888955e+10 5.050459e+10 8.378366e+10 7.340630e+10 4.409691e+10 5.049608e+10 2.067424e+10 -1.496233e+10 7.121461e+09 4.459983e+09 4.177124e+10 1.063882e+10 3.163992e+10 1.167200e+10 7.285482e+09 8.105288e+09 1.247453e+10 8.752834e+09 4.641377e+09 -4.141143e+09 -3.259171e+09 2.648907e+09 2.004038e+09 3.126402e+09 8.641669e+08 2.852718e+09 1.174117e+09 -6.182107e+08 1.478363e+09 7.042648e+06 7.042648e+06 -1.014143e+09 -1.014143e+09 -6.028809e+08 5.523559e+07 -3.416973e+07 -7.847226e+07 2.158434e+08 4.086637e+07 4.086637e+07 -3.875739e+07 -8.713936e+07 -1.088440e+08 9.060659e+07 -2.076815e+09 -2.076815e+09 3.678104e+08 2.171644e+08 3.093015e+07 2.803860e+07 -1.906592e+07 -1.906592e+07 -4.015557e+07 -2.015890e+06 2.872443e+07 3.822515e+07 1.448541e+07 -2.675715e+06 -2.675715e+06 1.427138e+06 4.961889e+05 6.633293e+06 6.633293e+06 9.588487e+06 6.424848e+06 6.424848e+06 9.773102e+06 1.740688e+07 1.740688e+07 1.186374e+07 1.321724e+07 2.400619e+07 2.635036e+07 2.247392e+07 2.052823e+07 2.052823e+07 2.308614e+07 1.354751e+07 1.354751e+07 1.032658e+07 1.014465e+07 1.813988e+07 1.465486e+07 1.465486e+07 1.360126e+07 7.759120e+06 7.759120e+06 7.530914e+06 7.196108e+06 8.773017e+06 4.633563e+06 4.633563e+06 5.508366e+06 6.853789e+06 6.802947e+06 3.748037e+06 1.604031e+06 8.300652e+05 1.013250e+05 1.013250e+05 1.013250e+05 1.013250e+05 1.013250e+05 1.249770e+07 3.314261e+07 4.207771e+07 2.077137e+08 -6.868059e+08 -6.868059e+08 1.040994e+09 1.040994e+09 -2.679623e+07 -2.679623e+07 -2.679623e+07 -2.603829e+07 -2.603829e+07 3.057938e+06 3.057938e+06 8.874021e+09 8.874021e+09 8.874021e+09 6.296907e+09 6.296907e+09 2.216207e+09 2.216207e+09 2.216207e+09 2.211610e+09 -6.386464e+07 -6.386464e+07 3.265759e+08 8.252249e+06 8.252249e+06 8.252249e+06 9.071689e+06 9.071689e+06 1.075720e+07 1.126564e+07 1.126564e+07 1.174514e+07 3.727443e+06 9.119705e+06 1.067046e+07 3.794556e+06 3.794556e+06 2.674717e+06 2.674717e+06 8.849965e+05 -1.672457e+06 6.819345e+10 6.819345e+10 6.819345e+10 1.088132e+10 1.088132e+10 1.544329e+10 -2.500048e+10 -2.500048e+10 -2.500048e+10 -2.231594e+10 4.686848e+09 3.271045e+09 4.502232e+09 4.502232e+09 5.026602e+09 2.078759e+10 2.078759e+10 1.375034e+10 7.170431e+09 7.170431e+09 7.170431e+09 6.114349e+11 6.114349e+11 6.114349e+11 9.472780e+10 9.472780e+10 9.472780e+10 5.249441e+08 5.249441e+08 5.249441e+08 1.991292e+11 1.991292e+11 1.991292e+11 4.446522e+09 4.446522e+09 4.446522e+09 4.196803e+09 1.689259e+11 1.689259e+11 2.380688e+10 2.380688e+10 2.380688e+10 1.034306e+12 7.428469e+11 7.710027e+09 7.710027e+09 9.010175e+08 9.010175e+08 9.010175e+08 2.747195e+08 2.747195e+08 1.365634e+10 1.526627e+10 1.526627e+10 -2.125814e+09 -2.125814e+09 -2.125814e+09 -5.803887e+07 -5.803887e+07 2.120955e+11 2.120955e+11 2.120955e+11 1.354410e+11 5.445961e+11 2.386676e+11 7.796070e+09 7.796070e+09 3.315308e+10 3.315308e+10 3.315308e+10 2.232971e+11 3.997088e+11 3.997088e+11 1.228915e+11 1.228915e+11 1.228915e+11 1.289838e+08 1.289838e+08 1.289838e+08 3.481213e+11 3.481213e+11 3.481213e+11 6.337541e+09 2.787807e+09 2.001482e+11 2.001482e+11 2.001482e+11 1.008319e+11 6.102688e+08 6.102688e+08 4.055387e+10 4.562688e+08 4.562688e+08 4.562688e+08 -7.336396e+09 -7.336396e+09 6.518095e+09 6.518095e+09 1.462489e+10 1.462489e+10 1.462489e+10 1.268744e+11 1.268744e+11 1.268744e+11 4.515099e+09 4.515099e+09 4.515099e+09 3.979691e+11 3.979691e+11 2.139916e+10 2.139916e+10 3.017572e+11 3.017572e+11 3.017572e+11 8.530788e+09 2.482581e+09 2.482581e+09 2.482581e+09 1.284550e+11 -5.769783e+09 -5.769783e+09 1.649768e+10 1.649768e+10 1.649768e+10 4.818065e+09 4.818065e+09 4.818065e+09 -6.572875e+10 1.276836e+11 1.276836e+11 1.276836e+11 2.266656e+11 2.266656e+11 2.266656e+11 1.010743e+12 3.312657e+11 7.945818e+10 7.945818e+10 7.945818e+10 5.158333e+10 5.158333e+10 3.675163e+09 3.675163e+09 3.675163e+09 2.572180e+11 2.572180e+11 2.572180e+11 2.036845e+11 -9.116652e+10 5.005751e+11 5.005751e+11 1.017515e+09 1.017515e+09 1.017515e+09 7.209672e+10 7.209672e+10 8.657620e+10 8.657620e+10 7.851903e+11 -8.168575e+10 -8.168575e+10 1.296182e+11 1.296182e+11 1.296182e+11 2.652010e+10 2.658803e+11 1.598398e+11 1.598398e+11 1.497110e+10 1.497110e+10 1.356627e+10 1.356627e+10 1.356627e+10 4.397543e+10 4.397543e+10 4.752947e+08 4.752947e+08 4.752947e+08 1.080459e+09 1.080459e+09 1.080459e+09 1.965094e+10 9.324214e+11 -7.355476e+08 -7.355476e+08 -7.355476e+08 7.836781e+10 7.836781e+10 7.836781e+10 1.537025e+11 1.066765e+11 9.324214e+11 1.096020e+11 1.515849e+08 1.515849e+08 1.515849e+08 3.597396e+09 3.597396e+09 2.531251e+08 2.531251e+08 2.531251e+08 5.040380e+09 5.040380e+09 5.040380e+09 4.071294e+10 6.016551e+07 6.016551e+07 6.016551e+07 3.755629e+10 1.514455e+11 1.514455e+11 8.556678e+10 2.888600e+09 2.888600e+09 1.733400e+10 -1.021893e+10 -1.021893e+10 -1.075420e+10 -1.075420e+10 8.812904e+09 1.194258e+11 4.895065e+09 4.895065e+09 4.895065e+09 1.348935e+10 1.816646e+08 1.816646e+08 3.397287e+11 6.411405e+10 6.411405e+10 2.128522e+10 3.006392e+06 3.006392e+06 3.006392e+06 3.981901e+08 3.981901e+08 1.384437e+10 1.384437e+10 1.945915e+10 1.945915e+10 2.030332e+10 1.174181e+09 1.174181e+09 1.174181e+09 -6.577215e+08 -6.577215e+08 -6.577215e+08 2.386676e+11 -1.466246e+08 -1.466246e+08 -1.296301e+09 4.482610e+08 2.047822e+11 1.076258e+11 4.496156e+10 4.496156e+10 4.357281e+07 4.357281e+07 4.357281e+07 1.028714e+10 5.590011e+06 5.590011e+06 5.590011e+06 6.297156e+09 6.297156e+09 1.805104e+10 1.031536e+11 -2.159541e+07 -2.159541e+07 -2.159541e+07 3.027811e+07 3.027811e+07 3.027811e+07 -3.249199e+07 -3.249199e+07 2.702142e+08 2.702142e+08 7.342857e+08 7.342857e+08 8.256628e+08 1.698482e+11 1.698482e+11 1.680637e+10 1.680637e+10 3.605424e+09 3.605424e+09 3.231212e+10 -6.311758e+06 7.224183e+05 7.224183e+05 7.224183e+05 5.848830e+09 -1.381979e+07 -1.381979e+07 2.445076e+09 2.445076e+09 2.027197e+10 7.059864e+10 1.013832e+10 1.267101e+09 1.267101e+09 5.577927e+08 5.577927e+08 1.527841e+10 1.568118e+07 1.568118e+07 1.568118e+07 1.923038e+07 1.923038e+07 1.923038e+07 1.345574e+09 1.345574e+09 1.345574e+09 6.443113e+09 6.443113e+09 9.118777e+06 9.118777e+06 9.118777e+06 -8.532886e+06 -8.532886e+06 -8.532886e+06 -1.433406e+07 1.519931e+07 1.519931e+07 1.519931e+07 -8.337459e+07 -8.337459e+07 -3.268345e+08 9.850702e+06 9.850702e+06 2.233371e+07 2.233371e+07 2.233371e+07 2.087672e+09 2.087672e+09 2.257886e+08 2.257886e+08 -3.551754e+08 -3.551754e+08 -3.551754e+08 1.668949e+07 1.668949e+07 1.668949e+07 1.482333e+09 1.388784e+07 1.388784e+07 1.388784e+07 5.390695e+06 5.390695e+06 5.390695e+06 -1.548397e+07 -1.548397e+07 -1.548397e+07 -1.231990e+07 -8.840648e+07 -8.840648e+07 -9.508441e+07 4.133475e+06 4.133475e+06 7.598850e+06 -1.733591e+08 -1.733591e+08 -1.733591e+08 7.757045e+06 7.757045e+06 7.757045e+06 6.896612e+06 6.896612e+06 6.896612e+06 8.815679e+06 8.815679e+06 8.815679e+06 -2.909244e+07 -2.909244e+07 -4.042096e+07 -4.042096e+07 -9.643810e+07 -9.643810e+07 1.510611e+07 1.510611e+07 1.510611e+07 -2.304914e+07 -2.304914e+07 -3.945741e+07 -3.945741e+07 1.610243e+07 1.568169e+07 1.568169e+07 -2.354499e+07 -2.354499e+07 -1.229031e+07 1.865079e+07 1.865079e+07 1.865079e+07 1.614737e+07 1.614737e+07 1.342408e+07 1.342408e+07 -2.150767e+07 -1.520724e+08 -1.520724e+08 -1.520724e+08 2.508105e+09 2.508105e+09 2.508105e+09 1.644072e+07 1.644072e+07 1.818881e+07 1.818881e+07 1.818881e+07 1.747629e+07 1.632991e+07 1.632991e+07 4.132473e+07 -1.136839e+09 -2.913061e+10 1.720954e+10 1.718816e+11 5.207753e+10 -1.253137e+09 7.189496e+06 7.189496e+06 7.189496e+06 1.153383e+07 1.153383e+07 -1.310675e+07 -6.318003e+05 4.807710e+06 1.092448e+09 7.624341e+10 5.948373e+07 8.999614e+07 8.999614e+07 1.704075e+07 1.704075e+07 1.704075e+07 1.594520e+07 1.044606e+07 5.255169e+06 5.255169e+06 1.498492e+07 1.498492e+07 1.498492e+07 1.088946e+06 3.514286e+08 5.035108e+08 5.095990e+11 3.603490e+11 3.603490e+11 1.563274e+11 4.612943e+10 4.612943e+10 -2.961940e+09 -1.192630e+05 1.107115e+07 1.107115e+07 1.107115e+07 7.804194e+06 7.804194e+06 2.270156e+11 2.270156e+11 1.541103e+11 -8.979986e+10 6.566989e+10 -1.176381e+11 -1.686229e+11 -1.686229e+11 -1.686229e+11 4.836797e+10 -3.099601e+10 5.784469e+11 9.540196e+09 1.612396e+10 2.644258e+09 2.644258e+09 2.644258e+09 4.615079e+09 4.615079e+09 9.085621e+10 -1.758163e+11 3.689227e+11 7.594869e+09 2.196665e+10 3.274173e+10 -5.205874e+11 -5.205874e+11 1.840682e+11 -6.389466e+10 -6.389466e+10 1.107341e+11 -7.752838e+10 -9.591586e+09 3.305645e+10 -2.667104e+10 1.709423e+10 -9.772786e+10 -9.772786e+10 -9.772786e+10 -2.066711e+11 -2.066711e+11 3.825586e+10 6.350264e+10 9.149574e+10 3.289678e+10 -1.259714e+11 -1.908930e+11 -1.837595e+11 -5.128339e+09 8.349057e+10 5.936287e+10 -3.303733e+09 1.302074e+11 4.106027e+10 8.749695e+09 -2.091988e+09 3.879281e+09 1.178535e+11 7.855696e+10 2.922981e+08 2.922981e+08 2.466185e+11 3.192374e+09 3.192374e+09 -1.430906e+10 -1.430906e+10 5.489786e+09 -6.920146e+08 4.994331e+08 4.994331e+08 4.994331e+08 6.746858e+10 4.085712e+10 4.085712e+10 5.494222e+08 4.457074e+08 -4.313761e+10 3.401578e+09 2.202268e+09 2.202268e+09 5.385223e+09 5.011525e+09 2.871229e+09 2.871229e+09 1.094451e+10 5.971870e+09 -1.774590e+09 1.699897e+09 1.158453e+09 -5.447537e+07 -5.447537e+07 5.637831e+09 9.149234e+09 -2.837548e+09 -2.837548e+09 -2.837548e+09 -5.114466e+08 4.502720e+08 4.741926e+10 7.821860e+09 5.113375e+08 5.113375e+08 5.113375e+08 7.184464e+09 7.184464e+09 1.979430e+09 1.584577e+09 -5.710584e+07 -1.979339e+08 2.241701e+08 5.922709e+07 5.922709e+07 5.592269e+08 8.894735e+08 -1.442464e+09 2.279101e+08 5.361571e+08 3.261336e+09 5.486849e+06 5.486849e+06 5.486849e+06 2.751826e+08 4.641997e+09 2.563508e+09 -3.849125e+07 -7.255162e+09 2.718351e+09 2.718351e+09 -1.996839e+09 -2.318013e+10 1.594286e+07 1.594286e+07 5.090896e+07 1.123188e+07 1.123188e+07 -1.226423e+07 -6.395259e+07 -6.395259e+07 7.230833e+06 7.230833e+06 3.776667e+08 1.427933e+08 3.634263e+07 3.136226e+07 3.136226e+07 2.946829e+09 1.016087e+08 1.016087e+08 1.776921e+08 1.776921e+08 1.776921e+08 6.379523e+08 6.379523e+08 5.034269e+08 -3.594850e+07 -3.594850e+07 1.452116e+07 1.196054e+07 3.330369e+07 5.431110e+07 1.750615e+07 7.511473e+07 4.304262e+07 8.189924e+07 -3.504525e+07 1.958713e+07 2.118500e+07 2.118500e+07 2.118500e+07 1.841032e+07 -6.733333e+05 1.753600e+07 1.753600e+07 1.753600e+07 -1.685391e+07 2.527991e+07 2.527991e+07 2.527991e+07 1.967413e+07 4.032937e+08 1.843934e+07 1.843934e+07 -3.200429e+06 1.808917e+08 7.039955e+08 -5.745814e+07 8.142782e+07 1.425219e+07 1.425219e+07 -8.505062e+06 -2.553000e+06 1.555554e+07 2.397539e+08 1.266085e+07 1.266085e+07 1.266085e+07 1.448298e+07 1.843201e+07 1.843201e+07 1.843201e+07 2.021597e+07 2.021597e+07 1.649193e+07 -1.512302e+07 1.359899e+07 1.256046e+07 1.373438e+07 1.699044e+07 1.699044e+07 1.042863e+07 1.042863e+07 3.586128e+07 1.742625e+07 1.650045e+07 1.650045e+07 2.002317e+07 2.002317e+07 1.345446e+09 1.431489e+07 -4.464761e+06 1.431019e+07 1.431019e+07 1.897052e+07 1.897052e+07 1.897052e+07 1.663985e+07 1.844075e+07 1.844075e+07 1.043591e+07 -2.672846e+06 1.540400e+07 1.593611e+07 1.871424e+07 1.871424e+07 1.763806e+07 1.665853e+07 2.655089e+07 1.946019e+07 1.698605e+07 1.698605e+07 1.740912e+07 1.592628e+07 5.810982e+06 5.810982e+06 1.262917e+07 1.262917e+07 1.730805e+07 1.730805e+07 4.649378e+06 8.967987e+06 6.650932e+06 3.294631e+06 -3.708717e+07 -3.708717e+07 1.952349e+07 8.329189e+06 8.329189e+06 7.079670e+06 7.079670e+06 8.602373e+06 8.602373e+06 1.779323e+07 -3.853878e+06 -5.940874e+06 1.637902e+07 1.938358e+07 8.144608e+06 1.577209e+07 1.575158e+07 1.026876e+07 1.026876e+07 -1.423728e+08 1.912519e+07 1.912519e+07 1.912519e+07 1.736649e+07 6.966153e+06 1.212096e+07 1.853266e+07 -1.401694e+07 1.606175e+07 1.718949e+07 1.660916e+07 8.308575e+06 3.997805e+05 5.683142e+06 1.670627e+07 1.429193e+07 1.241194e+07 1.375938e+07 9.156515e+06 1.415433e+07 1.443127e+07 1.384008e+07 1.296253e+07 6.739364e+06 1.392073e+07 2.175494e+07 7.185996e+06 7.185996e+06 1.863036e+07 1.863036e+07 7.808365e+07 7.808365e+07 -5.085666e+06 1.110153e+07 2.368555e+07 1.013250e+05 1.013250e+05 1.013250e+05 1.013250e+05 6.353448e+06 2.014165e+07 -4.566909e+06 -1.393562e+08 -6.705276e+08 2.857616e+09 7.344061e+09 -7.544990e+10 -7.544990e+10 -7.544990e+10 -9.474611e+10 -2.056441e+10 -2.230473e+11 -1.588609e+11 1.566308e+07 1.566308e+07 1.566308e+07 1.858593e+07 7.111959e+06 7.111959e+06 7.111959e+06 -5.646558e+05 -3.534280e+09 -3.534280e+09 -3.534280e+09 7.923124e+09 7.923124e+09 1.056272e+07 1.056272e+07 1.056272e+07 8.181107e+06 8.181107e+06 2.339409e+09 1.405025e+07 1.405025e+07 1.481313e+07 1.642525e+07 1.642525e+07 1.251910e+07 -6.769789e+11 6.735095e+06 6.735095e+06 6.735095e+06 3.223839e+06 3.223839e+06 3.223839e+06 2.424011e+06 4.633563e+06 9.864618e+06 9.864618e+06 9.864618e+06 -4.565506e+08 -8.160024e+07 -4.565506e+08 -4.565506e+08 7.806131e+06 7.137563e+06 2.927717e+09 6.605702e+09 2.927717e+09 2.927717e+09 -4.039977e+10 -7.157392e+06 -7.157392e+06 -7.157392e+06 -5.078665e+06 -4.374215e+08 -4.374215e+08 6.353448e+06 -1.390298e+09 8.677520e+06 8.677520e+06 4.804694e+06 -2.732467e+08 -2.732467e+08 3.621123e+09 2.074081e+10 2.074081e+10 2.074081e+10 2.067424e+10 4.477650e+07 4.477650e+07 4.477650e+07 1.318745e+08 1.318745e+08 -1.774759e+07 -1.774759e+07 -1.774759e+07 -5.189862e+07 -5.189862e+07 6.100391e+09 6.100391e+09 6.100391e+09 6.034682e+09 -9.229388e+05 -9.229388e+05 -9.229388e+05 8.223879e+06 -1.065290e+08 -1.065290e+08 -1.065290e+08 1.874545e+08 3.263805e+08 1.695689e+07 -1.797179e+09 -1.797179e+09 -1.797179e+09 -9.871980e+09 -4.328807e+09 8.641669e+08 8.641669e+08 9.377404e+08 9.377404e+08 9.377404e+08 1.385494e+10 1.385494e+10 1.385494e+10 1.491359e+09 1.491359e+09 1.491359e+09 -1.543902e+12 -1.543902e+12 -4.815077e+12 -4.815077e+12 5.378621e+05 5.378621e+05 5.378621e+05 6.112789e+05 -2.632856e+11 -2.632856e+11 -2.632856e+11 2.143901e+08 2.143901e+08 2.143901e+08 8.352825e+10 8.352825e+10 8.352825e+10 1.656353e+09 1.656353e+09 1.656353e+09 2.789620e+10 2.789620e+10 2.789620e+10 7.735747e+10 7.735747e+10 -5.757133e+10 -5.757133e+10 3.286143e+11 3.286143e+11 3.286143e+11 1.431611e+10 1.431611e+10 1.431611e+10 3.846814e+09 3.846814e+09 3.846814e+09 1.143500e+11 2.182675e+11 -7.116940e+06 -7.116940e+06 -7.116940e+06 1.491106e+10 1.491106e+10 1.491106e+10 2.100271e+10 2.100271e+10 -1.204416e+11 -1.204416e+11 -2.555514e+10 2.909479e+09 2.909479e+09 2.909479e+09 -1.783452e+08 -1.783452e+08 -1.783452e+08 6.072331e+10 4.858464e+10 5.833882e+09 5.833882e+09 5.833882e+09 5.294423e+06 5.294423e+06 5.294423e+06 9.087393e+08 7.175168e+10 1.774570e+10 1.774570e+10 1.774570e+10 -1.262710e+11 -1.262710e+11 -1.262710e+11 7.075238e+10 7.075238e+10 6.778991e+10 6.778991e+10 4.608865e+10 3.751092e+09 3.751092e+09 -6.473697e+08 -6.473697e+08 -6.473697e+08 -2.077649e+10 -1.997775e+09 -1.997775e+09 1.041381e+07 1.041381e+07 1.041381e+07 6.376511e+11 -1.650416e+09 -1.650416e+09 -1.650416e+09 -2.033488e+11 -2.033488e+11 2.496184e+11 8.752834e+09 8.752834e+09 -2.090238e+09 -2.090238e+09 -2.778832e+09 -2.778832e+09 -2.778832e+09 -2.873537e+11 2.029410e+11 2.029410e+11 2.029410e+11 -1.679032e+10 -1.679032e+10 -1.679032e+10 -6.714197e+10 -6.714197e+10 -1.548761e+10 -1.548761e+10 -1.548761e+10 2.515313e+10 5.887179e+09 5.887179e+09 5.887179e+09 -7.014182e+09 -7.014182e+09 -7.014182e+09 3.154832e+10 3.154832e+10 3.154832e+10 -1.016663e+10 -1.016663e+10 2.585824e+11 -8.060128e+10 -8.060128e+10 -1.121376e+11 -1.121376e+11 4.053278e+10 4.053278e+10 1.367597e+11 2.585824e+11 2.585824e+11 3.838454e+09 3.838454e+09 3.838454e+09 5.830771e+10 2.274157e+11 -2.497787e+11 9.299304e+09 9.299304e+09 4.005429e+09 4.005429e+09 4.005429e+09 6.249293e+09 1.934268e+10 -7.966284e+08 -7.966284e+08 -7.966284e+08 2.866242e+10 4.263598e+08 4.263598e+08 4.263598e+08 2.534851e+10 2.534851e+10 2.534851e+10 3.924863e+10 6.239408e+07 6.239408e+07 6.239408e+07 4.862893e+09 -8.078224e+08 -8.078224e+08 -8.078224e+08 2.918644e+09 2.760023e+11 3.263943e+11 1.925313e+06 1.925313e+06 1.925313e+06 1.000839e+11 1.000839e+11 1.182478e+11 1.182478e+11 1.673324e+09 1.364608e+11 7.508796e+08 1.446268e+11 8.076259e+09 8.076259e+09 8.646645e+07 8.646645e+07 8.646645e+07 1.296243e+07 1.296243e+07 1.296243e+07 -8.854719e+08 -8.854719e+08 -8.854719e+08 2.127678e+07 2.127678e+07 3.606843e+10 3.606843e+10 2.159906e+10 2.159906e+10 1.251287e+09 1.251287e+09 1.251287e+09 1.362979e+11 1.362979e+11 2.178838e+11 2.178838e+11 1.426042e+09 1.426042e+09 3.059160e+11 3.059160e+11 3.059160e+11 3.134430e+10 -2.026525e+07 -2.026525e+07 3.192549e+08 3.623564e+09 3.623564e+09 3.623564e+09 1.429671e+11 9.536218e+10 6.489812e+07 6.489812e+07 6.489812e+07 -9.928383e+07 -9.928383e+07 9.839100e+09 9.839100e+09 9.839100e+09 7.384122e+10 5.696593e+07 5.696593e+07 5.696593e+07 3.113577e+09 5.076850e+09 2.422552e+08 1.918145e+09 1.918145e+09 3.464660e+09 3.464660e+09 6.205051e+09 7.403923e+08 7.403923e+08 7.403923e+08 2.828009e+09 3.859484e+10 3.859484e+10 3.591763e+08 3.591763e+08 1.032550e+08 1.032550e+08 -3.534693e+06 -3.534693e+06 1.233706e+10 2.182675e+11 -3.089520e+07 -3.089520e+07 -3.089520e+07 4.280735e+10 5.165896e+10 1.622754e+07 1.622754e+07 1.622754e+07 3.353180e+09 2.601952e+10 2.601952e+10 2.146954e+10 1.760088e+07 1.760088e+07 1.760088e+07 -3.640366e+08 3.854716e+10 1.846499e+10 5.480291e+06 5.480291e+06 -2.444489e+08 -2.444489e+08 -2.444489e+08 -5.013623e+09 -5.013623e+09 -5.013623e+09 1.643852e+10 3.362580e+09 1.562093e+07 1.562093e+07 1.562093e+07 -2.795393e+10 -2.795393e+10 -2.795393e+10 -3.617525e+10 1.592808e+07 1.592808e+07 1.592808e+07 6.380779e+08 -3.625642e+10 1.231011e+10 -8.969122e+07 -8.969122e+07 5.758861e+08 1.363938e+09 1.280598e+09 5.127660e+06 5.127660e+06 5.127660e+06 -1.459590e+04 9.546984e+06 9.546984e+06 9.546984e+06 -1.142655e+08 -5.553319e+10 -5.553319e+10 -1.982494e+10 -7.653695e+08 3.740469e+10 3.740469e+10 7.331750e+09 7.331750e+09 -6.273901e+05 -7.252559e+06 -7.252559e+06 -9.162581e+06 -4.917316e+10 -4.917316e+10 -4.517169e+08 3.071923e+08 1.337213e+07 1.337213e+07 -1.013823e+11 1.303127e+07 1.303127e+07 -3.555771e+07 4.570111e+06 8.124334e+06 8.124334e+06 -1.229314e+08 1.406979e+07 1.406979e+07 1.406979e+07 -7.344395e+08 7.578249e+09 7.578249e+09 2.652187e+06 2.652187e+06 7.595766e+06 5.740484e+06 8.089004e+06 8.089004e+06 9.260376e+06 1.836723e+07 1.836723e+07 -1.698064e+07 8.446453e+09 1.040313e+10 -8.237025e+07 -8.237025e+07 9.321508e+06 -5.729476e+08 -2.398111e+07 -2.398111e+07 6.376511e+11 6.376511e+11 9.932751e+09 7.518675e+09 1.000753e+07 1.000753e+07 -1.013454e+07 -7.337690e+10 3.234697e+08 3.234697e+08 1.583811e+10 -1.001925e+09 -7.285478e+10 2.803860e+07 1.465486e+07 7.196108e+06 7.196108e+06 8.773017e+06 -1.378899e+11 -1.378899e+11 4.027648e+11 -1.585874e+10 -1.585874e+10 8.346742e+10 1.336920e+11 8.346742e+10 7.966965e+11 2.604190e+10 9.188009e+10 -6.063632e+11 -6.063632e+11 -6.063632e+11 4.500173e+11 1.552417e+11 1.552417e+11 1.552417e+11 2.573286e+11 2.573286e+11 -1.036510e+11 1.000721e+11 1.000721e+11 9.775047e+10 -8.274860e+10 -4.116627e+11 -4.116627e+11 -2.015916e+11 7.121461e+09 -6.881510e+10 -1.828609e+10 3.888955e+10 8.703436e+10 8.703436e+10 2.713021e+11 1.047622e+11 -4.729127e+10 -6.873836e+10 2.088214e+11 8.378366e+10 8.378366e+10 4.459983e+09 5.050459e+10 2.640283e+10 8.220040e+10 1.293751e+11 5.080569e+11 2.271827e+10 1.967034e+10 1.967034e+10 1.967034e+10 1.561740e+10 2.550953e+10 -5.347954e+08 9.808631e+10 9.808631e+10 -4.023099e+09 2.648907e+09 2.648907e+09 5.883548e+09 1.065357e+11 7.827989e+09 4.420079e+10 8.105288e+09 8.105288e+09 9.039489e+10 9.039489e+10 9.039489e+10 2.787613e+10 2.787613e+10 1.349011e+11 1.063882e+10 1.393388e+10 -6.991233e+07 -6.991233e+07 -6.991233e+07 -7.631389e+09 -8.038497e+08 -8.038497e+08 5.882302e+09 8.836841e+09 -6.028809e+08 -6.028809e+08 3.163992e+10 1.167200e+10 1.167200e+10 -1.014143e+09 7.285482e+09 -3.207804e+10 -4.844059e+09 3.176274e+09 4.157269e+09 4.157269e+09 8.797449e+08 8.797449e+08 8.797449e+08 4.543689e+10 1.174117e+09 3.126402e+09 4.936992e+10 -1.318507e+10 8.281454e+09 6.388494e+09 -2.383803e+09 -4.284934e+08 -4.284934e+08 1.748146e+09 1.748146e+09 1.063042e+10 1.808313e+09 1.520459e+11 8.502704e+09 1.895735e+09 3.249674e+10 2.154152e+10 7.042648e+06 -9.789905e+08 -9.789905e+08 -9.789905e+08 8.179171e+07 1.377866e+10 5.946745e+08 5.946745e+08 4.086637e+07 -2.246879e+09 9.060659e+07 9.060659e+07 1.303965e+08 7.495649e+07 1.784344e+08 1.784344e+08 3.678104e+08 -8.713936e+07 -8.713936e+07 -2.412730e+08 -1.679537e+09 -3.875739e+07 1.622251e+07 -1.207214e+09 -5.861119e+08 2.380832e+09 7.891329e+08 -2.014757e+09 8.918577e+07 -5.486124e+06 -7.978098e+07 -1.923032e+07 2.988851e+07 8.095843e+08 -2.015890e+06 -2.015890e+06 2.872443e+07 1.837972e+07 1.204539e+09 -9.139698e+08 -9.139698e+08 2.170550e+07 2.170550e+07 1.709902e+07 1.047234e+09 1.259352e+07 3.769588e+07 -1.745258e+10 2.787140e+06 5.621647e+08 -1.906592e+07 -1.591918e+09 1.477759e+08 1.477759e+08 1.448541e+07 5.834925e+07 2.400619e+07 2.400619e+07 1.740688e+07 -7.229167e+06 -1.999065e+07 1.731400e+09 9.773102e+06 8.424819e+06 5.069551e+06 5.069551e+06 6.633293e+06 4.961889e+05 3.744242e+06 6.424848e+06 4.001657e+06 -1.148945e+08 8.859068e+06 -1.747375e+06 -1.747375e+06 5.611421e+06 1.186374e+07 1.321724e+07 1.278536e+10 2.052823e+07 3.340827e+06 1.354751e+07 5.438849e+07 1.625479e+07 1.625479e+07 9.588487e+06 4.686364e+06 -5.101920e+09 -5.101920e+09 1.756929e+07 1.756929e+07 1.756929e+07 2.960463e+06 2.064127e+07 1.866091e+07 6.907389e+08 6.211914e+06 2.247392e+07 4.182723e+09 2.308614e+07 2.308614e+07 1.154370e+07 1.453389e+08 2.377149e+07 7.982168e+06 2.337917e+07 8.088131e+06 2.126513e+07 1.473327e+07 1.473327e+07 1.015884e+07 1.744620e+06 1.367040e+07 5.378461e+06 -1.361340e+07 -1.361340e+07 -1.361340e+07 9.920323e+06 1.220400e+07 1.273730e+07 6.332479e+06 6.332479e+06 6.332479e+06 7.759120e+06 1.175107e+06 1.175107e+06 1.889406e+07 1.286781e+07 1.861509e+07 1.014465e+07 2.025702e+07 9.283033e+06 3.748037e+06 1.173836e+07 1.099611e+07 -3.497650e+06 9.392208e+06 9.333047e+06 3.041904e+06 1.672592e+07 1.672592e+07 2.095117e+07 2.095117e+07 1.017838e+07 2.365925e+07 1.336645e+07 3.142594e+06 2.260905e+07 1.516705e+07 1.525413e+07 6.853789e+06 4.633230e+08 8.798381e+06 1.471509e+07 1.848099e+07 1.961984e+07 1.263087e+07 1.778280e+07 2.283562e+07 2.624812e+07 -8.391446e+10 8.553726e+06 8.300652e+05 1.843038e+07 1.843038e+07 1.102942e+07 1.102942e+07 -2.046357e+12 -2.046357e+12 9.458398e+06 2.344679e+07 5.241322e+06 9.440694e+06 -1.398103e+06 1.005930e+07 1.976829e+06 9.837037e+06 8.491062e+06 -4.566909e+06 -4.875462e+07 1.369613e+07 4.507699e+06 2.183322e+06 2.164007e+06 8.346742e+10 1.584676e+11 1.988753e+11 -5.516065e+11 -1.378899e+11 4.027648e+11 4.027648e+11 -1.683679e+11 -3.467845e+11 4.500173e+11 4.500173e+11 2.573286e+11 2.826068e+11 9.775047e+10 9.775047e+10 -8.274860e+10 -2.015916e+11 -7.285478e+10 1.139820e+11 1.000721e+11 -9.268326e+09 6.668315e+10 3.888955e+10 3.888955e+10 5.050459e+10 8.378366e+10 7.340630e+10 4.409691e+10 5.049608e+10 2.067424e+10 -1.496233e+10 7.121461e+09 4.459983e+09 4.177124e+10 1.063882e+10 3.163992e+10 1.167200e+10 7.285482e+09 8.105288e+09 1.247453e+10 8.752834e+09 4.641377e+09 -4.141143e+09 -3.259171e+09 2.648907e+09 2.004038e+09 3.126402e+09 8.641669e+08 2.852718e+09 1.174117e+09 -6.182107e+08 1.478363e+09 7.042648e+06 7.042648e+06 -1.014143e+09 -1.014143e+09 -6.028809e+08 5.523559e+07 -3.416973e+07 -7.847226e+07 2.158434e+08 4.086637e+07 4.086637e+07 -3.875739e+07 -8.713936e+07 -1.088440e+08 9.060659e+07 -2.076815e+09 -2.076815e+09 3.678104e+08 2.171644e+08 3.093015e+07 2.803860e+07 -1.906592e+07 -1.906592e+07 -4.015557e+07 -2.015890e+06 2.872443e+07 3.822515e+07 1.448541e+07 -2.675715e+06 -2.675715e+06 1.427138e+06 4.961889e+05 6.633293e+06 6.633293e+06 9.588487e+06 6.424848e+06 6.424848e+06 9.773102e+06 1.740688e+07 1.740688e+07 1.186374e+07 1.321724e+07 2.400619e+07 2.635036e+07 2.247392e+07 2.052823e+07 2.052823e+07 2.308614e+07 1.354751e+07 1.354751e+07 1.032658e+07 1.014465e+07 1.813988e+07 1.465486e+07 1.465486e+07 1.360126e+07 7.759120e+06 7.759120e+06 7.530914e+06 7.196108e+06 8.773017e+06 4.633563e+06 4.633563e+06 5.508366e+06 6.853789e+06 6.802947e+06 3.748037e+06 1.604031e+06 8.300652e+05 1.013250e+05 1.013250e+05 1.013250e+05 1.013250e+05 1.013250e+05 3.727443e+06 1.249770e+07 1.110153e+07 4.207771e+07 -6.386464e+07 1.040994e+09 1.040994e+09 1.040994e+09 -2.679623e+07 -2.679623e+07 -2.679623e+07 -2.603829e+07 -2.603829e+07 3.057938e+06 3.057938e+06 8.874021e+09 8.874021e+09 8.874021e+09 6.296907e+09 6.296907e+09 2.216207e+09 2.216207e+09 2.216207e+09 2.211610e+09 -6.386464e+07 -6.386464e+07 3.265759e+08 8.252249e+06 8.252249e+06 8.252249e+06 9.071689e+06 9.071689e+06 1.075720e+07 1.126564e+07 1.126564e+07 1.174514e+07 3.727443e+06 9.119705e+06 1.067046e+07 3.794556e+06 3.794556e+06 2.674717e+06 2.674717e+06 8.849965e+05 -1.672457e+06 6.819345e+10 6.819345e+10 6.819345e+10 1.088132e+10 1.088132e+10 1.544329e+10 -2.500048e+10 -2.500048e+10 -2.500048e+10 -2.231594e+10 4.686848e+09 3.271045e+09 4.502232e+09 4.502232e+09 5.026602e+09 2.078759e+10 2.078759e+10 1.375034e+10 7.170431e+09 7.170431e+09 7.170431e+09 6.114349e+11 6.114349e+11 6.114349e+11 9.472780e+10 9.472780e+10 9.472780e+10 5.249441e+08 5.249441e+08 5.249441e+08 1.991292e+11 1.991292e+11 1.991292e+11 4.446522e+09 4.446522e+09 4.446522e+09 4.196803e+09 1.689259e+11 1.689259e+11 2.380688e+10 2.380688e+10 2.380688e+10 1.034306e+12 7.428469e+11 7.710027e+09 7.710027e+09 9.010175e+08 9.010175e+08 9.010175e+08 2.747195e+08 2.747195e+08 1.365634e+10 1.526627e+10 1.526627e+10 -2.125814e+09 -2.125814e+09 -2.125814e+09 -5.803887e+07 -5.803887e+07 2.120955e+11 2.120955e+11 2.120955e+11 1.354410e+11 5.445961e+11 2.386676e+11 7.796070e+09 7.796070e+09 3.315308e+10 3.315308e+10 3.315308e+10 2.232971e+11 3.997088e+11 3.997088e+11 1.228915e+11 1.228915e+11 1.228915e+11 1.289838e+08 1.289838e+08 1.289838e+08 3.481213e+11 3.481213e+11 3.481213e+11 6.337541e+09 2.787807e+09 2.001482e+11 2.001482e+11 2.001482e+11 1.008319e+11 6.102688e+08 6.102688e+08 4.055387e+10 4.562688e+08 4.562688e+08 4.562688e+08 -7.336396e+09 -7.336396e+09 6.518095e+09 6.518095e+09 1.462489e+10 1.462489e+10 1.462489e+10 1.268744e+11 1.268744e+11 1.268744e+11 4.515099e+09 4.515099e+09 4.515099e+09 3.979691e+11 3.979691e+11 2.139916e+10 2.139916e+10 3.017572e+11 3.017572e+11 3.017572e+11 8.530788e+09 2.482581e+09 2.482581e+09 2.482581e+09 1.284550e+11 -5.769783e+09 -5.769783e+09 1.649768e+10 1.649768e+10 1.649768e+10 4.818065e+09 4.818065e+09 4.818065e+09 -6.572875e+10 1.276836e+11 1.276836e+11 1.276836e+11 2.266656e+11 2.266656e+11 2.266656e+11 1.010743e+12 3.312657e+11 7.945818e+10 7.945818e+10 7.945818e+10 5.158333e+10 5.158333e+10 3.675163e+09 3.675163e+09 3.675163e+09 2.572180e+11 2.572180e+11 2.572180e+11 2.036845e+11 -9.116652e+10 5.005751e+11 5.005751e+11 1.017515e+09 1.017515e+09 1.017515e+09 7.209672e+10 7.209672e+10 8.657620e+10 8.657620e+10 7.851903e+11 -8.168575e+10 -8.168575e+10 1.296182e+11 1.296182e+11 1.296182e+11 2.652010e+10 2.658803e+11 1.598398e+11 1.598398e+11 1.497110e+10 1.497110e+10 1.356627e+10 1.356627e+10 1.356627e+10 4.397543e+10 4.397543e+10 4.752947e+08 4.752947e+08 4.752947e+08 1.080459e+09 1.080459e+09 1.080459e+09 1.965094e+10 9.324214e+11 -7.355476e+08 -7.355476e+08 -7.355476e+08 7.836781e+10 7.836781e+10 7.836781e+10 1.537025e+11 1.066765e+11 9.324214e+11 1.096020e+11 1.515849e+08 1.515849e+08 1.515849e+08 3.597396e+09 3.597396e+09 2.531251e+08 2.531251e+08 2.531251e+08 5.040380e+09 5.040380e+09 5.040380e+09 4.071294e+10 6.016551e+07 6.016551e+07 6.016551e+07 3.755629e+10 1.514455e+11 1.514455e+11 8.556678e+10 2.888600e+09 2.888600e+09 1.733400e+10 -1.021893e+10 -1.021893e+10 -1.075420e+10 -1.075420e+10 8.812904e+09 1.194258e+11 4.895065e+09 4.895065e+09 4.895065e+09 1.348935e+10 1.816646e+08 1.816646e+08 3.397287e+11 6.411405e+10 6.411405e+10 2.128522e+10 3.006392e+06 3.006392e+06 3.006392e+06 3.981901e+08 3.981901e+08 1.384437e+10 1.384437e+10 1.945915e+10 1.945915e+10 2.030332e+10 1.174181e+09 1.174181e+09 1.174181e+09 -6.577215e+08 -6.577215e+08 -6.577215e+08 2.386676e+11 -1.466246e+08 -1.466246e+08 -1.296301e+09 4.482610e+08 2.047822e+11 1.076258e+11 4.496156e+10 4.496156e+10 4.357281e+07 4.357281e+07 4.357281e+07 1.028714e+10 5.590011e+06 5.590011e+06 5.590011e+06 6.297156e+09 6.297156e+09 1.805104e+10 1.031536e+11 -2.159541e+07 -2.159541e+07 -2.159541e+07 3.027811e+07 3.027811e+07 3.027811e+07 -3.249199e+07 -3.249199e+07 2.702142e+08 2.702142e+08 7.342857e+08 7.342857e+08 8.256628e+08 1.698482e+11 1.698482e+11 1.680637e+10 1.680637e+10 3.605424e+09 3.605424e+09 3.231212e+10 -6.311758e+06 7.224183e+05 7.224183e+05 7.224183e+05 5.848830e+09 -1.381979e+07 -1.381979e+07 2.445076e+09 2.445076e+09 2.027197e+10 7.059864e+10 1.013832e+10 1.267101e+09 1.267101e+09 5.577927e+08 5.577927e+08 1.527841e+10 1.568118e+07 1.568118e+07 1.568118e+07 1.923038e+07 1.923038e+07 1.923038e+07 1.345574e+09 1.345574e+09 1.345574e+09 6.443113e+09 6.443113e+09 9.118777e+06 9.118777e+06 9.118777e+06 -8.532886e+06 -8.532886e+06 -8.532886e+06 -1.433406e+07 1.519931e+07 1.519931e+07 1.519931e+07 -8.337459e+07 -8.337459e+07 -3.268345e+08 9.850702e+06 9.850702e+06 2.233371e+07 2.233371e+07 2.233371e+