<?xml version="1.0"?>
 <VTKFile type="UnstructuredGrid" version="1.0" byte_order="LittleEndian" header_type="UInt64">
  <UnstructuredGrid>
    <FieldData>
     <DataArray type="Float64" Name="TimeValue" NumberOfTuples="1" format="ascii">
3e-08
     </DataArray>
    </FieldData>
   <Piece NumberOfPoints="3548" NumberOfCells="3379">
    <PointData>
     <DataArray type="Float64" Name="pointP" format="ascii">
-2.390054e+15 -2.730374e+15 -3.182352e+15 -2.652574e+15 -3.987670e+15 -4.787259e+15 -4.406053e+15 -2.880411e+15 -4.737684e+15 -8.035801e+15 -7.254971e+15 -1.311166e+16 -1.287433e+16 -7.327795e+15 -8.679714e+15 -5.778766e+15 -7.136724e+15 -9.400079e+15 -8.987555e+15 -5.914877e+15 -5.912720e+15 -8.035537e+15 -5.759765e+15 -7.957221e+15 -9.979169e+15 -9.620167e+15 -9.642737e+15 -7.048883e+15 -1.030954e+16 -1.340990e+16 -1.413525e+16 -1.306916e+16 -1.319045e+16 -1.379099e+16 -1.075422e+16 -1.629759e+16 -2.087166e+16 -1.599480e+16 -1.679916e+16 -2.148483e+16 -2.305031e+16 -1.772270e+16 -3.637332e+16 -3.787400e+16 -1.289470e+16 -1.819773e+16 -1.749819e+16 -4.100746e+16 -4.050943e+16 -1.172390e+16 -1.658818e+16 -1.267907e+16 -1.542385e+16 -1.938460e+16 -1.832729e+16 -2.025665e+16 -1.402392e+16 -4.440909e+16 -4.330744e+16 -2.329608e+16 -2.792781e+16 -2.897673e+16 -2.881243e+16 -1.995054e+16 -1.271210e+16 -1.223183e+16 -3.421908e+16 -4.039749e+16 -3.930394e+16 -3.385786e+16 -2.971450e+16 -2.694729e+16 -2.868175e+16 -2.305154e+16 -2.340303e+16 -2.150287e+16 -1.824562e+16 -7.031191e+15 2.550106e+15 -1.282294e+15 -3.334391e+15 -3.334391e+15 2.474914e+15 2.327875e+15 8.489006e+14 -3.563924e+14 -3.563924e+14 -6.314192e+14 8.569170e+14 6.729460e+14 1.927942e+14 -8.759410e+13 -9.471358e+14 -8.515108e+14 -3.257525e+14 4.249777e+14 1.357761e+13 -7.407759e+13 4.259517e+14 2.015716e+14 6.975109e+13 -4.863719e+13 -4.863719e+13 -1.286129e+14 9.717763e+12 -2.631192e+13 -4.112246e+13 1.131192e+14 8.218214e+13 3.910333e+13 -2.223991e+12 -2.225426e+13 -1.140447e+14 -8.892927e+12 1.388929e+14 8.924448e+13 4.384469e+13 1.856114e+13 1.265672e+13 1.278468e+13 -2.368545e+13 -1.763747e+13 6.051639e+12 5.737500e+12 1.814732e+13 8.810443e+12 1.059165e+13 -1.071760e+13 -1.071760e+13 -1.544173e+13 4.079821e+12 1.340945e+13 1.340945e+13 2.702406e+12 3.660536e+12 3.660536e+12 -5.627398e+11 4.523412e+12 7.913489e+11 2.514048e+12 2.514048e+12 -1.751855e+12 -1.751855e+12 2.105944e+12 2.404004e+11 -1.119328e+12 -2.348674e+11 3.100650e+12 -3.472659e+10 -3.472659e+10 7.457882e+11 1.721916e+11 1.018055e+11 1.107567e+11 1.107567e+11 2.416416e+12 2.416416e+12 2.416416e+12 1.947785e+12 8.602332e+11 8.602332e+11 8.602332e+11 4.333218e+12 4.333218e+12 4.333218e+12 3.950296e+12 2.416376e+13 2.416376e+13 2.416376e+13 4.302215e+13 5.027370e+13 5.027370e+13 5.027370e+13 5.068784e+13 1.242796e+15 1.242796e+15 1.242796e+15 1.122892e+15 1.061817e+15 2.491666e+14 2.491666e+14 2.491666e+14 2.517047e+14 5.151636e+13 5.151636e+13 5.151636e+13 2.814124e+14 2.814124e+14 2.814124e+14 3.420525e+14 2.064448e+14 1.375935e+15 1.375935e+15 1.375935e+15 1.211182e+15 5.266057e+13 5.266057e+13 5.266057e+13 3.892557e+14 3.892557e+14 -4.082124e+15 -4.082124e+15 -4.082124e+15 -3.406906e+15 -4.980864e+14 -9.068820e+15 -9.068820e+15 -9.068820e+15 -9.522321e+15 -4.303471e+15 -8.557448e+14 -8.557448e+14 -8.557448e+14 2.844752e+14 -6.588989e+15 -6.588989e+15 -6.588989e+15 -2.325359e+15 -2.325359e+15 -3.320288e+15 -3.320288e+15 -5.250496e+15 -5.250496e+15 -5.250496e+15 -1.556953e+16 -5.128582e+15 -5.128582e+15 -5.128582e+15 -1.433673e+16 1.364457e+15 1.364457e+15 6.829165e+14 6.829165e+14 8.516284e+14 8.516284e+14 8.516284e+14 2.410397e+15 2.410397e+15 2.629634e+15 2.629634e+15 2.629634e+15 2.476941e+15 2.476941e+15 -8.791576e+14 1.993565e+15 1.993565e+15 1.993565e+15 1.223501e+15 9.225710e+14 9.225710e+14 9.225710e+14 2.016833e+14 2.016833e+14 7.265208e+14 7.265208e+14 7.265208e+14 6.744338e+14 6.744338e+14 5.472422e+14 5.472422e+14 5.472422e+14 8.953892e+14 8.953892e+14 8.132881e+14 8.132881e+14 8.132881e+14 4.334313e+14 4.334313e+14 2.724130e+12 2.724130e+12 2.724130e+12 6.649692e+10 5.252945e+13 5.252945e+13 5.252945e+13 3.374583e+13 2.758877e+14 2.758877e+14 2.758877e+14 3.414639e+14 3.414639e+14 2.016592e+13 2.016592e+13 2.016592e+13 3.481965e+13 3.481965e+13 3.481965e+13 2.679794e+13 2.679794e+13 2.273601e+13 2.273601e+13 2.273601e+13 1.224694e+13 1.224694e+13 3.546595e+13 3.546595e+13 3.546595e+13 3.120131e+13 2.247139e+14 2.247139e+14 4.125960e+14 4.125960e+14 4.125960e+14 4.933999e+13 4.933999e+13 2.505668e+14 2.505668e+14 5.943826e+14 5.943826e+14 5.943826e+14 4.127704e+14 2.169770e+15 2.169770e+15 2.169770e+15 2.537321e+15 7.507488e+14 7.507488e+14 3.967081e+14 3.967081e+14 3.967081e+14 -2.865512e+14 -2.865512e+14 -2.865512e+14 6.433704e+14 6.433704e+14 -1.941074e+15 -1.941074e+15 -1.941074e+15 8.531816e+15 8.531816e+15 -8.654975e+15 -8.654975e+15 -1.229884e+16 -1.363010e+16 -1.363010e+16 -1.363010e+16 -6.854330e+15 -6.854330e+15 -1.030954e+16 -6.020406e+15 -6.020406e+15 -6.020406e+15 -2.132977e+16 -2.878764e+15 -7.316997e+15 -4.093499e+15 -4.093499e+15 -4.093499e+15 -5.206385e+15 -5.206385e+15 -5.206385e+15 -1.789435e+16 -1.789435e+16 -1.789435e+16 2.715804e+15 2.715804e+15 2.715804e+15 1.464097e+15 1.464097e+15 -4.463579e+14 -4.463579e+14 -4.463579e+14 6.515607e+14 6.515607e+14 6.499719e+14 6.499719e+14 8.684200e+14 8.684200e+14 7.330975e+14 7.330975e+14 8.076861e+14 6.421216e+13 6.421216e+13 4.555803e+13 4.555803e+13 7.378673e+12 7.378673e+12 1.072874e+11 1.633884e+11 1.072874e+11 1.072874e+11 4.859419e+13 1.445111e+14 1.445111e+14 8.619195e+14 8.619195e+14 8.619195e+14 1.026995e+15 1.026995e+15 1.026995e+15 2.159413e+14 4.270965e+14 4.270965e+14 -3.727191e+15 -3.727191e+15 -1.378951e+15 -4.509477e+15 -7.731994e+15 -2.897673e+16 -7.155213e+15 -7.155213e+15 -8.908280e+15 -8.908280e+15 -1.816554e+16 -1.413525e+16 -3.257545e+15 -3.257545e+15 -1.447466e+16 -1.447466e+16 -1.447466e+16 -3.127810e+16 -5.691128e+15 -3.987670e+15 -1.129877e+15 -1.129877e+15 -1.075422e+16 -4.384231e+15 -4.384231e+15 -8.791576e+14 -2.961060e+15 -2.961060e+15 -1.076176e+16 -2.018956e+15 -2.018956e+15 -2.018956e+15 -1.495476e+16 -1.144802e+16 -1.144802e+16 -8.213722e+15 -2.635295e+15 -2.635295e+15 -2.635295e+15 -4.521672e+15 -4.521672e+15 -2.980414e+15 -6.562957e+15 -6.562957e+15 -1.056932e+16 -2.880411e+15 -3.241944e+15 -1.031626e+16 -1.031626e+16 -4.601628e+15 -1.064633e+16 -1.300568e+16 -1.300568e+16 -8.185529e+15 -1.402392e+16 -5.418963e+15 -5.418963e+15 -1.149890e+16 -4.787259e+15 -8.888834e+14 -8.057054e+15 -2.457738e+15 -3.263334e+16 -2.766283e+15 -2.766283e+15 -9.022522e+15 -6.885597e+15 -5.570133e+15 -6.124679e+15 -6.124679e+15 -6.124679e+15 -9.160753e+15 -9.160753e+15 6.794322e+13 6.794322e+13 -1.155494e+16 -5.387607e+15 -2.219651e+15 6.795727e+15 -2.015366e+15 -2.015366e+15 -4.247046e+14 9.288596e+14 4.848206e+14 -1.696937e+15 4.243877e+14 -2.996718e+15 -3.821020e+15 1.264228e+15 1.471295e+15 1.471295e+15 -9.822984e+13 -9.046527e+15 6.119239e+13 1.797442e+15 1.201850e+15 9.220453e+13 9.220453e+13 -7.308661e+13 8.532613e+14 1.410254e+15 1.410254e+15 -1.543875e+15 1.738951e+14 1.738951e+14 1.738951e+14 2.796394e+14 5.442608e+14 -1.160352e+14 1.184845e+15 1.184845e+15 1.184845e+15 -1.114112e+15 -2.424246e+15 7.681112e+14 2.536709e+15 2.536709e+15 1.024809e+15 1.523189e+15 3.125662e+14 1.216620e+15 -2.250345e+15 8.178411e+13 1.766885e+15 2.543823e+15 2.543823e+15 1.121723e+15 1.121723e+15 3.035675e+15 3.035675e+15 1.450517e+15 1.450517e+15 2.019555e+15 1.436307e+15 6.739705e+14 6.739705e+14 8.368867e+14 8.368867e+14 -6.333757e+14 1.463281e+15 2.640135e+14 1.090012e+14 3.373763e+15 2.138756e+15 3.342374e+15 3.342374e+15 3.047258e+15 3.949169e+15 -1.600121e+15 3.230002e+15 3.230002e+15 2.089760e+15 1.943584e+15 3.983979e+15 3.593854e+15 8.499032e+15 5.130506e+14 -2.096063e+15 8.936366e+14 8.936366e+14 5.700132e+14 2.423058e+14 3.332516e+15 1.096401e+15 7.963440e+14 5.392561e+13 5.392561e+13 5.392561e+13 3.417575e+13 3.417575e+13 1.711511e+15 1.931991e+15 4.282637e+14 1.151387e+15 2.064535e+15 7.060619e+14 4.344017e+14 1.442409e+15 2.969485e+15 9.141173e+14 1.412571e+15 1.398480e+15 1.398480e+15 1.398480e+15 1.469304e+15 1.259911e+15 5.680545e+14 5.835522e+14 2.209460e+15 2.209460e+15 4.945687e+14 8.800619e+14 8.800619e+14 8.903494e+14 8.903494e+14 7.715228e+14 -3.021108e+13 2.077817e+15 2.077817e+15 1.220445e+15 1.220445e+15 9.254131e+14 7.589665e+14 7.589665e+14 7.255342e+14 2.487164e+15 2.487164e+15 1.456683e+15 1.456683e+15 1.456683e+15 3.986556e+14 3.642155e+14 2.723890e+14 7.958478e+14 7.958478e+14 9.676611e+14 3.089698e+14 6.829200e+14 4.625585e+14 6.683180e+14 3.485332e+15 9.996109e+14 3.799237e+14 1.540128e+15 1.540128e+15 4.776523e+14 4.776523e+14 7.718466e+14 8.853938e+14 7.040151e+14 7.040151e+14 4.260360e+14 3.049495e+14 3.089698e+14 4.566577e+14 7.504516e+13 7.504516e+13 2.088110e+14 1.313518e+15 1.313518e+15 1.556013e+15 1.744596e+15 1.744596e+15 2.241401e+14 2.241401e+14 1.571463e+14 4.287441e+14 4.287441e+14 4.287441e+14 7.154738e+14 5.632421e+14 2.742493e+14 1.268096e+14 2.981480e+14 2.981480e+14 8.967852e+14 8.967852e+14 3.835325e+14 2.841992e+14 5.813433e+14 3.713047e+14 3.713047e+14 3.929493e+14 1.415358e+15 1.415358e+15 1.052357e+15 6.192426e+14 1.753543e+14 7.353653e+14 7.353653e+14 7.353653e+14 1.259004e+14 1.717951e+14 2.436698e+14 3.782372e+14 3.782372e+14 1.027000e+14 1.027000e+14 1.027000e+14 3.483674e+14 6.343928e+14 2.750100e+14 2.750100e+14 1.615008e+14 7.271923e+14 4.803247e+14 4.803247e+14 4.803247e+14 2.799234e+14 1.593733e+14 4.011825e+14 3.279095e+12 4.730946e+13 1.071498e+14 1.181509e+14 2.261657e+14 9.566009e+13 2.048652e+14 2.048652e+14 6.575428e+13 6.575428e+13 2.793816e+14 1.802860e+14 1.431043e+14 1.431043e+14 1.431043e+14 5.387515e+14 3.124879e+13 4.352625e+14 4.963036e+13 -6.151637e+12 1.575522e+14 3.373225e+14 4.329470e+14 3.057823e+14 3.153440e+14 1.311013e+14 1.311013e+14 7.866039e+13 7.866039e+13 7.866039e+13 1.741363e+13 2.192790e+14 1.161317e+14 1.360720e+14 1.460845e+14 1.242343e+14 9.541606e+13 1.640119e+13 4.083777e+13 4.940408e+13 4.940408e+13 4.940408e+13 1.930808e+14 3.309981e+14 1.264183e+13 1.264183e+13 -5.622525e+13 -5.622525e+13 2.562145e+13 1.643627e+13 5.710044e+13 1.883514e+13 6.413191e+13 1.060451e+13 1.965288e+13 1.965288e+13 2.163814e+13 9.352499e+12 9.352499e+12 7.360493e+12 7.360493e+12 -1.363876e+12 -1.363876e+12 1.042123e+13 3.844377e+12 3.844377e+12 1.106935e+13 1.721105e+12 5.673007e+10 2.108556e+11 2.763001e+11 2.763001e+11 2.763001e+11 1.137898e+14 1.137898e+14 1.137898e+14 -3.164117e+14 -3.164117e+14 2.042008e+12 2.042008e+12 2.042008e+12 3.784861e+12 -2.452967e+13 -2.452967e+13 -4.852708e+14 -4.852708e+14 8.675940e+14 8.675940e+14 8.675940e+14 5.423671e+12 5.423671e+12 5.423671e+12 2.219513e+12 4.053742e+13 4.053742e+13 4.053742e+13 8.289727e+12 7.610578e+12 7.610578e+12 3.237106e+13 3.237106e+13 3.237106e+13 -2.701362e+13 -2.701362e+13 -2.701362e+13 -4.679131e+13 -4.679131e+13 -4.679131e+13 -3.662155e+12 -3.662155e+12 -3.662155e+12 3.322113e+14 6.090333e+12 6.090333e+12 6.090333e+12 9.818514e+12 9.818514e+12 9.818514e+12 5.816529e+12 5.816529e+12 5.816529e+12 1.044346e+13 1.044346e+13 1.044346e+13 4.700753e+12 4.700753e+12 4.318529e+11 4.318529e+11 5.787392e+12 1.052181e+13 6.294830e+11 6.294830e+11 6.294830e+11 1.635495e+13 1.635495e+13 3.774104e+12 3.774104e+12 3.774104e+12 2.654542e+13 2.654542e+13 2.654542e+13 3.889547e+13 3.889547e+13 3.889547e+13 3.659825e+13 8.352252e+13 8.352252e+13 8.352252e+13 5.389083e+13 4.657455e+13 4.657455e+13 4.657455e+13 4.780076e+13 4.780076e+13 4.780076e+13 4.221673e+13 3.296851e+13 1.584600e+13 1.584600e+13 1.584600e+13 8.555454e+13 8.555454e+13 7.060826e+13 7.060826e+13 2.251916e+13 -2.868984e+13 -2.868984e+13 2.929375e+12 2.929375e+12 2.929375e+12 -2.571935e+12 -2.571935e+12 6.106424e+12 6.106424e+12 6.106424e+12 5.928640e+13 4.303758e+12 4.303758e+12 4.303758e+12 2.689369e+12 4.339787e+12 3.003503e+11 3.003503e+11 1.690500e+12 1.690500e+12 2.543774e+13 2.543774e+13 2.543774e+13 2.107881e+13 1.795750e+13 -5.861549e+14 -5.861549e+14 1.414924e+13 -1.051952e+14 4.599949e+13 4.599949e+13 4.599949e+13 -1.720194e+13 -3.007264e+13 -3.007264e+13 -1.258123e+13 4.709700e+13 4.709700e+13 5.785793e+13 -1.313193e+13 -1.313193e+13 -1.517113e+12 -1.517113e+12 -1.517113e+12 3.360134e+14 3.360134e+14 3.360134e+14 2.453301e+14 2.121892e+14 -2.027466e+12 -2.342639e+14 -2.342639e+14 -2.342639e+14 1.509511e+14 2.714491e+14 2.714491e+14 7.453929e+12 7.453929e+12 3.635354e+13 -3.797847e+14 -3.797847e+14 1.730121e+14 1.730121e+14 2.749500e+13 2.749500e+13 2.749500e+13 5.134200e+12 5.134200e+12 -1.488757e+12 -1.488757e+12 4.679265e+13 1.324672e+13 1.324672e+13 1.324672e+13 1.307996e+13 1.307996e+13 3.108162e+13 3.108162e+13 2.404482e+14 2.404482e+14 1.681813e+12 1.681813e+12 3.739677e+12 1.992554e+13 1.992554e+13 -7.139600e+12 -7.139600e+12 1.113444e+14 1.113444e+14 1.113444e+14 1.200719e+13 1.200719e+13 1.200719e+13 1.294090e+13 6.663988e+12 3.581645e+13 9.819290e+12 9.819290e+12 2.504870e+13 2.065891e+14 -1.471457e+12 -1.471457e+12 5.528781e+12 5.528781e+12 5.528781e+12 1.829026e+14 3.246255e+14 3.246255e+14 7.384484e+11 7.384484e+11 2.076631e+11 -9.976816e+12 5.616231e+12 5.616231e+12 6.447759e+11 6.447759e+11 6.447759e+11 2.714015e+12 2.714015e+12 7.207109e+10 -2.333617e+13 1.517290e+13 1.517290e+13 7.700460e+11 6.144479e+13 6.144479e+13 9.869120e+12 1.084028e+13 1.084028e+13 2.529625e+13 -8.976399e+11 -8.976399e+11 8.923337e+13 8.923337e+13 -5.507515e+12 1.326850e+13 1.326850e+13 6.309724e+12 6.309724e+12 -9.770812e+12 1.369244e+13 2.040955e+13 2.040955e+13 1.223718e+13 6.559009e+11 7.423690e+13 7.423690e+13 3.686340e+13 1.688472e+13 2.043524e+12 2.043524e+12 2.043524e+12 6.181940e+12 6.181940e+12 6.181940e+12 6.521298e+12 6.521298e+12 1.801919e+12 1.801919e+12 1.801919e+12 7.120917e+12 3.456343e+12 7.651932e+12 5.860101e+12 -5.524385e+11 -5.524385e+11 -5.524385e+11 2.654886e+13 3.613626e+12 3.613626e+12 8.265571e+12 8.265571e+12 8.265571e+12 4.911395e+11 1.363660e+13 -1.335142e+12 -1.335142e+12 8.797290e+12 8.797290e+12 8.797290e+12 1.242629e+13 5.435684e+11 1.014804e+14 1.014804e+14 1.014804e+14 2.871525e+13 2.871525e+13 6.008189e+13 -1.345816e+11 2.640661e+12 1.340695e+13 5.155964e+12 5.155964e+12 4.043096e+12 4.671349e+12 4.671349e+12 7.979487e+11 7.979487e+11 7.979487e+11 9.572902e+12 3.156985e+12 3.882661e+13 1.669414e+12 3.697524e+12 2.341486e+12 6.277826e+13 8.361490e+11 8.361490e+11 5.780378e+11 2.294039e+12 2.294039e+12 5.176822e+12 6.674294e+11 6.674294e+11 6.674294e+11 2.150176e+12 2.150176e+12 2.100328e+13 2.100328e+13 -7.778765e+12 1.198033e+12 1.198033e+12 8.089511e+11 1.296527e+13 1.880338e+13 1.066719e+12 1.440705e+12 3.079625e+12 1.311898e+13 1.440705e+12 5.196022e+11 1.457137e+15 1.457137e+15 1.694841e+14 1.694841e+14 -1.081621e+15 -1.081621e+15 2.700792e+14 1.226344e+14 -5.706938e+14 9.853695e+14 -1.399234e+15 8.883512e+11 8.883512e+11 5.552239e+12 1.228627e+13 6.630234e+13 5.913323e+12 5.913323e+12 1.568339e+14 1.458251e+15 -1.358484e+15 3.589076e+14 3.589076e+14 3.589076e+14 -4.778573e+14 -4.778573e+14 -4.778573e+14 1.028679e+15 6.209287e+14 6.209287e+14 1.518583e+14 1.518583e+14 1.147460e+14 -1.069319e+14 7.095473e+14 1.853016e+12 1.810101e+12 5.650023e+11 8.370915e+10 -2.494189e+11 -2.494189e+11 -1.727641e+13 1.190042e+14 -1.175910e+14 1.864475e+14 2.294452e+14 2.294452e+14 4.993474e+14 -4.920085e+13 3.926086e+13 -1.632604e+13 -1.632604e+13 -7.721461e+12 2.022219e+11 1.351947e+12 1.550694e+11 1.550694e+11 1.550694e+11 -6.936745e+12 3.975127e+12 5.593914e+12 5.593914e+12 1.751878e+13 2.175463e+12 2.175463e+12 -6.230867e+13 1.655805e+14 4.734729e+12 4.734729e+12 3.651676e+11 3.651676e+11 3.651676e+11 3.695987e+11 3.695987e+11 1.253930e+11 1.800204e+13 2.071141e+13 1.171454e+13 1.774816e+13 1.449392e+12 4.349025e+14 6.528752e+13 2.679386e+13 5.034216e+12 1.644502e+13 -9.378456e+11 1.728893e+13 4.552638e+12 4.552638e+12 2.554888e+12 1.832594e+12 -1.345240e+12 1.971701e+12 4.171917e+12 3.259314e+11 4.167898e+12 4.167898e+12 1.338713e+12 -1.239701e+12 1.780387e+12 7.184456e+09 7.184456e+09 -2.432105e+11 -3.582874e+12 2.569668e+12 3.904609e+12 -2.912392e+11 2.362674e+12 1.336587e+12 -1.948155e+12 2.703403e+12 2.703403e+12 2.703403e+12 3.473607e+12 -3.866963e+11 -3.866963e+11 1.363744e+12 1.363744e+12 2.031115e+12 -8.736774e+11 -8.736774e+11 6.661102e+11 -2.292303e+11 2.908664e+12 1.278335e+12 7.671711e+11 3.383142e+11 7.700460e+11 7.700460e+11 2.585398e+11 5.879042e+11 7.294876e+10 7.294876e+10 7.453070e+11 7.453070e+11 2.513670e+12 3.311413e+11 -9.248291e+09 7.118488e+11 7.118488e+11 -8.469908e+15 -8.469908e+15 -2.586621e+16 -4.063897e+16 -3.797491e+16 -2.603906e+16 -2.018534e+16 -2.649498e+16 2.724253e+14 2.724253e+14 2.724253e+14 4.245648e+14 1.184088e+15 1.184088e+15 1.184088e+15 9.693806e+14 -1.078534e+16 -1.078534e+16 -1.569736e+16 -1.569736e+16 -8.645147e+15 -6.626421e+15 -6.626421e+15 -6.626421e+15 -1.947024e+16 7.424087e+14 7.424087e+14 7.424087e+14 5.503709e+14 1.009776e+15 9.685561e+14 -1.192370e+16 -1.192370e+16 7.302401e+14 -1.514238e+16 -1.514238e+16 -1.514238e+16 2.700481e+15 2.700481e+15 2.700481e+15 3.329204e+15 3.329204e+15 3.499080e+15 1.396759e+15 -3.546799e+15 -2.863070e+15 -2.863070e+15 -5.448851e+14 2.550106e+15 -2.122401e+15 -2.122401e+15 -2.122401e+15 -3.084642e+15 -3.084642e+15 3.499080e+15 3.924093e+15 1.590534e+15 -6.840287e+14 2.833089e+15 2.833089e+15 1.472928e+15 2.529160e+15 2.364487e+15 1.562806e+14 4.554247e+14 4.912025e+14 4.912025e+14 5.711557e+14 2.221247e+14 -2.033275e+14 -2.033275e+14 -2.033275e+14 4.027905e+14 4.027905e+14 9.927265e+13 -2.867731e+13 -2.867731e+13 3.036847e+12 2.948294e+13 2.948294e+13 2.948294e+13 4.685061e+13 4.685061e+13 -1.511614e+13 -1.511614e+13 -1.511614e+13 1.927942e+14 1.927942e+14 2.273057e+13 4.739503e+11 4.739503e+11 4.739503e+11 6.889301e+13 6.889301e+13 6.889301e+13 1.037817e+14 9.230706e+13 -1.099921e+12 -1.099921e+12 -1.099921e+12 1.025924e+14 1.025924e+14 1.025924e+14 3.004578e+14 3.004578e+14 3.004578e+14 1.342199e+14 1.342199e+14 -8.684158e+13 -8.684158e+13 -8.684158e+13 -5.390203e+13 -5.390203e+13 2.259198e+14 2.259198e+14 2.259198e+14 1.232256e+14 1.232256e+14 2.301550e+13 2.301550e+13 2.301550e+13 -4.218163e+12 -4.218163e+12 -4.218163e+12 1.482100e+14 1.482100e+14 1.482100e+14 3.382720e+13 3.382720e+13 7.979030e+12 7.979030e+12 7.979030e+12 2.104334e+12 2.104334e+12 5.155021e+11 2.548115e+12 2.548115e+12 2.548115e+12 2.037319e+12 1.461616e+13 1.461616e+13 1.461616e+13 2.777103e+12 1.964361e+12 1.964361e+12 1.964361e+12 4.787421e+13 9.088560e+13 -2.294383e+12 -2.294383e+12 -2.294383e+12 -2.683233e+13 6.451295e+11 6.451295e+11 6.451295e+11 2.415724e+13 2.415724e+13 2.415724e+13 -2.251775e+13 -2.251775e+13 1.104301e+13 1.104301e+13 1.104301e+13 4.449956e+13 -7.131574e+13 -7.131574e+13 5.092670e+13 5.092670e+13 4.249777e+14 -9.660222e+13 4.409494e+13 1.761187e+12 2.736235e+14 1.122969e+14 2.221247e+14 8.189907e+13 8.189907e+13 3.724941e+12 3.724941e+12 3.724941e+12 2.546696e+13 2.546696e+13 6.663555e+10 6.663555e+10 6.663555e+10 6.585378e+14 6.585378e+14 6.585378e+14 5.737500e+12 5.737500e+12 -2.631192e+13 -2.631192e+13 3.362948e+13 3.362948e+13 3.362948e+13 -6.424316e+12 -6.424316e+12 -6.424316e+12 -1.600904e+13 -1.600904e+13 -1.600904e+13 8.375369e+14 2.702406e+12 2.702406e+12 3.910333e+13 3.910333e+13 -8.892927e+12 -8.892927e+12 -3.613701e+13 -3.613701e+13 6.459692e+13 8.666999e+13 8.666999e+13 8.666999e+13 -2.508066e+14 1.391495e+15 9.809008e+14 1.876068e+14 7.627884e+12 7.627884e+12 7.627884e+12 4.208957e+13 4.208957e+13 8.899505e+13 8.899505e+13 -1.221625e+14 -1.221625e+14 5.100081e+14 5.100081e+14 -1.300645e+13 -1.300645e+13 -2.790606e+13 5.117846e+13 5.117846e+13 -5.862035e+12 -5.862035e+12 -5.862035e+12 -1.037931e+13 -5.058664e+13 1.122655e+14 2.603887e+13 2.603887e+13 2.603887e+13 2.578943e+13 2.578943e+13 2.578943e+13 4.756974e+13 7.136259e+12 7.136259e+12 7.136259e+12 1.134762e+13 1.134762e+13 1.134762e+13 2.255291e+13 2.255291e+13 3.175279e+14 1.879403e+14 -1.234451e+12 -1.234451e+12 -1.555131e+13 -1.555131e+13 -2.674948e+12 -2.151331e+13 1.607565e+13 1.650329e+13 3.005448e+13 3.005448e+13 3.975357e+13 -8.616366e+11 1.298300e+12 1.298300e+12 5.559653e+13 2.732893e+14 1.461086e+13 1.461086e+13 1.632533e+11 -1.394097e+13 -1.394097e+13 7.985552e+12 -6.670104e+12 -6.670104e+12 -6.670104e+12 -2.929336e+13 -7.768854e+13 -5.343496e+12 -5.343496e+12 -5.343496e+12 3.018262e+12 3.018262e+12 2.664458e+14 -3.258272e+13 1.882275e+13 1.882275e+13 2.653631e+13 2.569218e+12 2.814245e+13 2.814245e+13 2.814245e+13 1.531026e+13 -1.573824e+13 7.305251e+11 7.305251e+11 7.305251e+11 -2.461860e+12 2.764110e+12 2.764110e+12 5.594030e+12 5.594030e+12 3.585806e+13 1.011412e+13 5.638014e+13 3.662132e+13 1.987165e+13 1.987165e+13 1.987165e+13 -1.748373e+13 -1.748373e+13 5.646692e+12 5.646692e+12 5.646692e+12 -7.349585e+12 -5.644487e+11 8.850690e+12 8.850690e+12 1.742165e+13 1.742165e+13 2.521001e+13 5.230800e+12 1.180779e+13 1.180779e+13 1.180779e+13 1.958452e+12 1.958452e+12 1.927548e+09 1.927548e+09 1.927548e+09 1.001808e+13 1.001808e+13 1.329046e+13 4.876712e+11 4.876712e+11 -5.068302e+09 -5.068302e+09 7.234874e+11 7.234874e+11 1.590005e+13 1.391572e+13 1.391572e+13 1.187814e+12 1.187814e+12 8.877807e+12 8.751224e+11 -2.303548e+12 -2.303548e+12 1.718628e+13 6.975847e+11 6.975847e+11 2.192769e+12 2.192769e+12 2.192769e+12 4.952548e+12 1.767347e+12 1.767347e+12 1.767347e+12 1.274880e+12 3.518925e+12 9.349287e+12 9.349287e+12 9.349287e+12 3.165938e+13 -4.921632e+12 4.288073e+12 3.132928e+12 2.969514e+12 1.042994e+13 6.162816e+13 1.918275e+12 1.918275e+12 2.289634e+12 3.891391e+10 3.891391e+10 3.891391e+10 2.487227e+12 2.938838e+12 1.324534e+13 1.405207e+12 2.941745e+11 1.606595e+12 4.858890e+12 1.652953e+12 1.652953e+12 4.347700e+12 1.482687e+13 -2.786101e+10 1.267623e+11 3.426824e+12 3.426824e+12 4.617941e+12 -5.164892e+10 -2.786101e+10 9.253802e+11 9.253802e+11 9.253802e+11 5.217183e+11 8.153194e+12 2.382719e+12 2.732533e+11 -3.077441e+11 -3.077441e+11 -3.077441e+11 8.187847e+11 8.187847e+11 2.732533e+11 1.390960e+12 1.390960e+12 3.866118e+11 6.053863e+12 6.053863e+12 1.277392e+12 2.136902e+12 6.511954e+11 6.511954e+11 6.511954e+11 2.488509e+12 5.087347e+10 5.087347e+10 9.204089e+11 3.036847e+12 3.036847e+12 9.414645e+11 9.361638e+11 8.601542e+11 1.401312e+12 1.401312e+12 1.699083e+12 4.305782e+11 7.098344e+11 7.098344e+11 4.368837e+11 9.414645e+11 9.414645e+11 7.143401e+11 -2.225426e+13 -3.257525e+14 -3.563924e+14 2.474914e+15 2.474914e+15 -4.112246e+13 1.831863e+14 1.831863e+14 -5.040979e+14 -1.599204e+14 -6.314192e+14 -6.314192e+14 8.489006e+14 1.459680e+13 2.842616e+15 5.249165e+14 -5.739378e+14 6.280725e+13 7.047754e+12 1.287827e+12 1.232145e+14 5.100833e+14 9.182803e+14 1.296573e+14 6.503363e+12 9.041896e+12 1.104296e+12 5.441487e+11 1.149133e+13 -2.604080e+10 -2.568885e+13 7.302490e+11 7.948225e+10 7.948225e+10 7.948225e+10 1.354155e+12 4.384469e+13 4.384469e+13 1.996464e+13 -6.633954e+13 6.975109e+13 3.909769e+13 6.051639e+12 8.218214e+13 1.856114e+13 -1.071760e+13 4.079821e+12 4.079821e+12 3.660536e+12 2.514048e+12 1.265672e+13 -1.859314e+11 -1.859314e+11 2.211704e+12 8.810443e+12 -1.751855e+12 -4.981821e+12 -3.933916e+11 2.105944e+12 7.902567e+12 2.847644e+12 7.913489e+11 7.913489e+11 1.340945e+13 -5.627398e+11 -2.409682e+12 -3.472659e+10 7.457882e+11 7.457882e+11 2.404004e+11 -4.055976e+12 -2.348674e+11 -2.348674e+11 1.484049e+12 1.824991e+11 1.824991e+11 -4.555762e+11 -4.555762e+11 1.782140e+12 -1.119328e+12 1.631624e+12 -2.493863e+10 1.192053e+11 1.192053e+11 1.192053e+11 6.278538e+12 6.650372e+11 3.100650e+12 1.182848e+11 5.198374e+11 3.482902e+12 1.574860e+12 -4.001720e+11 -2.556114e+12 -1.820289e+12 -1.820289e+12 -1.440235e+11 7.100030e+11 7.100030e+11 6.581465e+09 6.581465e+09 1.010361e+12 3.289518e+12 1.060675e+12 -4.571008e+11 -7.851645e+11 -3.309231e+10 -1.333203e+11 -3.917902e+10 9.908930e+11 1.060747e+11 1.786124e+11 -2.390054e+15 -2.730374e+15 -3.182352e+15 -2.652574e+15 -3.987670e+15 -4.787259e+15 -4.406053e+15 -2.880411e+15 -4.737684e+15 -8.035801e+15 -7.254971e+15 -1.311166e+16 -1.287433e+16 -7.327795e+15 -8.679714e+15 -5.778766e+15 -7.136724e+15 -9.400079e+15 -8.987555e+15 -5.914877e+15 -5.912720e+15 -8.035537e+15 -5.759765e+15 -7.957221e+15 -9.979169e+15 -9.620167e+15 -9.642737e+15 -7.048883e+15 -1.030954e+16 -1.340990e+16 -1.413525e+16 -1.306916e+16 -1.319045e+16 -1.379099e+16 -1.075422e+16 -1.629759e+16 -2.087166e+16 -1.599480e+16 -1.679916e+16 -2.148483e+16 -2.305031e+16 -1.772270e+16 -3.637332e+16 -3.787400e+16 -1.289470e+16 -1.819773e+16 -1.749819e+16 -4.100746e+16 -4.050943e+16 -1.172390e+16 -1.658818e+16 -1.267907e+16 -1.542385e+16 -1.938460e+16 -1.832729e+16 -2.025665e+16 -1.402392e+16 -4.440909e+16 -4.330744e+16 -2.329608e+16 -2.792781e+16 -2.897673e+16 -2.881243e+16 -1.995054e+16 -1.271210e+16 -1.223183e+16 -3.421908e+16 -4.039749e+16 -3.930394e+16 -3.385786e+16 -2.971450e+16 -2.694729e+16 -2.868175e+16 -2.305154e+16 -2.340303e+16 -2.150287e+16 -1.824562e+16 -7.031191e+15 2.550106e+15 -1.282294e+15 -3.334391e+15 -3.334391e+15 2.474914e+15 2.327875e+15 8.489006e+14 -3.563924e+14 -3.563924e+14 -6.314192e+14 8.569170e+14 6.729460e+14 1.927942e+14 -8.759410e+13 -9.471358e+14 -8.515108e+14 -3.257525e+14 4.249777e+14 1.357761e+13 -7.407759e+13 4.259517e+14 2.015716e+14 6.975109e+13 -4.863719e+13 -4.863719e+13 -1.286129e+14 9.717763e+12 -2.631192e+13 -4.112246e+13 1.131192e+14 8.218214e+13 3.910333e+13 -2.223991e+12 -2.225426e+13 -1.140447e+14 -8.892927e+12 1.388929e+14 8.924448e+13 4.384469e+13 1.856114e+13 1.265672e+13 1.278468e+13 -2.368545e+13 -1.763747e+13 6.051639e+12 5.737500e+12 1.814732e+13 8.810443e+12 1.059165e+13 -1.071760e+13 -1.071760e+13 -1.544173e+13 4.079821e+12 1.340945e+13 1.340945e+13 2.702406e+12 3.660536e+12 3.660536e+12 -5.627398e+11 4.523412e+12 7.913489e+11 2.514048e+12 2.514048e+12 -1.751855e+12 -1.751855e+12 2.105944e+12 2.404004e+11 -1.119328e+12 -2.348674e+11 3.100650e+12 -3.472659e+10 -3.472659e+10 7.457882e+11 1.721916e+11 1.018055e+11 1.107567e+11 1.107567e+11 2.416416e+12 2.416416e+12 2.416416e+12 1.947785e+12 8.602332e+11 8.602332e+11 8.602332e+11 4.333218e+12 4.333218e+12 4.333218e+12 3.950296e+12 2.416376e+13 2.416376e+13 2.416376e+13 4.302215e+13 5.027370e+13 5.027370e+13 5.027370e+13 5.068784e+13 1.242796e+15 1.242796e+15 1.242796e+15 1.122892e+15 1.061817e+15 2.491666e+14 2.491666e+14 2.491666e+14 2.517047e+14 5.151636e+13 5.151636e+13 5.151636e+13 2.814124e+14 2.814124e+14 2.814124e+14 3.420525e+14 2.064448e+14 1.375935e+15 1.375935e+15 1.375935e+15 1.211182e+15 5.266057e+13 5.266057e+13 5.266057e+13 3.892557e+14 3.892557e+14 -4.082124e+15 -4.082124e+15 -4.082124e+15 -3.406906e+15 -4.980864e+14 -9.068820e+15 -9.068820e+15 -9.068820e+15 -9.522321e+15 -4.303471e+15 -8.557448e+14 -8.557448e+14 -8.557448e+14 2.844752e+14 -6.588989e+15 -6.588989e+15 -6.588989e+15 -2.325359e+15 -2.325359e+15 -3.320288e+15 -3.320288e+15 -5.250496e+15 -5.250496e+15 -5.250496e+15 -1.556953e+16 -5.128582e+15 -5.128582e+15 -5.128582e+15 -1.433673e+16 1.364457e+15 1.364457e+15 6.829165e+14 6.829165e+14 8.516284e+14 8.516284e+14 8.516284e+14 2.410397e+15 2.410397e+15 2.629634e+15 2.629634e+15 2.629634e+15 2.476941e+15 2.476941e+15 -8.791576e+14 1.993565e+15 1.993565e+15 1.993565e+15 1.223501e+15 9.225710e+14 9.225710e+14 9.225710e+14 2.016833e+14 2.016833e+14 7.265208e+14 7.265208e+14 7.265208e+14 6.744338e+14 6.744338e+14 5.472422e+14 5.472422e+14 5.472422e+14 8.953892e+14 8.953892e+14 8.132881e+14 8.132881e+14 8.132881e+14 4.334313e+14 4.334313e+14 2.724130e+12 2.724130e+12 2.724130e+12 6.649692e+10 5.252945e+13 5.252945e+13 5.252945e+13 3.374583e+13 2.758877e+14 2.758877e+14 2.758877e+14 3.414639e+14 3.414639e+14 2.016592e+13 2.016592e+13 2.016592e+13 3.481965e+13 3.481965e+13 3.481965e+13 2.679794e+13 2.679794e+13 2.273601e+13 2.273601e+13 2.273601e+13 1.224694e+13 1.224694e+13 3.546595e+13 3.546595e+13 3.546595e+13 3.120131e+13 2.247139e+14 2.247139e+14 4.125960e+14 4.125960e+14 4.125960e+14 4.933999e+13 4.933999e+13 2.505668e+14 2.505668e+14 5.943826e+14 5.943826e+14 5.943826e+14 4.127704e+14 2.169770e+15 2.169770e+15 2.169770e+15 2.537321e+15 7.507488e+14 7.507488e+14 3.967081e+14 3.967081e+14 3.967081e+14 -2.865512e+14 -2.865512e+14 -2.865512e+14 6.433704e+14 6.433704e+14 -1.941074e+15 -1.941074e+15 -1.941074e+15 8.531816e+15 8.531816e+15 -8.654975e+15 -8.654975e+15 -1.229884e+16 -1.363010e+16 -1.363010e+16 -1.363010e+16 -6.854330e+15 -6.854330e+15 -1.030954e+16 -6.020406e+15 -6.020406e+15 -6.020406e+15 -2.132977e+16 -2.878764e+15 -7.316997e+15 -4.093499e+15 -4.093499e+15 -4.093499e+15 -5.206385e+15 -5.206385e+15 -5.206385e+15 -1.789435e+16 -1.789435e+16 -1.789435e+16 2.715804e+15 2.715804e+15 2.715804e+15 1.464097e+15 1.464097e+15 -4.463579e+14 -4.463579e+14 -4.463579e+14 6.515607e+14 6.515607e+14 6.499719e+14 6.499719e+14 8.684200e+14 8.684200e+14 7.330975e+14 7.330975e+14 8.076861e+14 6.421216e+13 6.421216e+13 4.555803e+13 4.555803e+13 7.378673e+12 7.378673e+12 1.072874e+11 1.633884e+11 1.072874e+11 1.072874e+11 4.859419e+13 1.445111e+14 1.445111e+14 8.619195e+14 8.619195e+14 8.619195e+14 1.026995e+15 1.026995e+15 1.026995e+15 2.159413e+14 4.270965e+14 4.270965e+14 -3.727191e+15 -3.727191e+15 -1.378951e+15 -4.509477e+15 -7.731994e+15 -2.897673e+16 -7.155213e+15 -7.155213e+15 -8.908280e+15 -8.908280e+15 -1.816554e+16 -1.413525e+16 -3.257545e+15 -3.257545e+15 -1.447466e+16 -1.447466e+16 -1.447466e+16 -3.127810e+16 -5.691128e+15 -3.987670e+15 -1.129877e+15 -1.129877e+15 -1.075422e+16 -4.384231e+15 -4.384231e+15 -8.791576e+14 -2.961060e+15 -2.961060e+15 -1.076176e+16 -2.018956e+15 -2.018956e+15 -2.018956e+15 -1.495476e+16 -1.144802e+16 -1.144802e+16 -8.213722e+15 -2.635295e+15 -2.635295e+15 -2.635295e+15 -4.521672e+15 -4.521672e+15 -2.980414e+15 -6.562957e+15 -6.562957e+15 -1.056932e+16 -2.880411e+15 -3.241944e+15 -1.031626e+16 -1.031626e+16 -4.601628e+15 -1.064633e+16 -1.300568e+16 -1.3