<?xml version="1.0"?>
 <VTKFile type="UnstructuredGrid" version="1.0" byte_order="LittleEndian" header_type="UInt64">
  <UnstructuredGrid>
    <FieldData>
     <DataArray type="Float64" Name="TimeValue" NumberOfTuples="1" format="ascii">
0.00012
     </DataArray>
    </FieldData>
   <Piece NumberOfPoints="3662" NumberOfCells="3444">
    <PointData>
     <DataArray type="Float64" Name="pointP" format="ascii">
1.452274e+05 1.452263e+05 1.452559e+05 1.451717e+05 1.450936e+05 1.450448e+05 1.449648e+05 1.449031e+05 1.448270e+05 1.447677e+05 1.446618e+05 1.445470e+05 1.443982e+05 1.442550e+05 1.440718e+05 1.439562e+05 1.438145e+05 1.436389e+05 1.434279e+05 1.432285e+05 1.430534e+05 1.427978e+05 1.426011e+05 1.423909e+05 1.421920e+05 1.420014e+05 1.417119e+05 1.414549e+05 1.411689e+05 1.408117e+05 1.404586e+05 1.402359e+05 1.398848e+05 1.396600e+05 1.393211e+05 1.389508e+05 1.386023e+05 1.383076e+05 1.378579e+05 1.374415e+05 1.370781e+05 1.366893e+05 1.363273e+05 1.358991e+05 1.355286e+05 1.351072e+05 1.346774e+05 1.342239e+05 1.337659e+05 1.333005e+05 1.328858e+05 1.324082e+05 1.319733e+05 1.313992e+05 1.309082e+05 1.303880e+05 1.299471e+05 1.294932e+05 1.289694e+05 1.284738e+05 1.279773e+05 1.274715e+05 1.268284e+05 1.263230e+05 1.256603e+05 1.251559e+05 1.245384e+05 1.240028e+05 1.234153e+05 1.228945e+05 1.222541e+05 1.216490e+05 1.210541e+05 1.203429e+05 1.199207e+05 1.193593e+05 1.187751e+05 1.181725e+05 1.175208e+05 1.168594e+05 1.163039e+05 1.157072e+05 1.150397e+05 1.144458e+05 1.138304e+05 1.132094e+05 1.125088e+05 1.118679e+05 1.112940e+05 1.106983e+05 1.100843e+05 1.093576e+05 1.087898e+05 1.080404e+05 1.074484e+05 1.067901e+05 1.060919e+05 1.054758e+05 1.048586e+05 1.042259e+05 1.036326e+05 1.029787e+05 1.023702e+05 1.017031e+05 1.011039e+05 1.003783e+05 9.973897e+04 9.908179e+04 9.844813e+04 9.780980e+04 9.723185e+04 9.652364e+04 9.593644e+04 9.530521e+04 9.473106e+04 9.413029e+04 9.344269e+04 9.285151e+04 9.227530e+04 9.172751e+04 9.104314e+04 9.047631e+04 8.978653e+04 8.978653e+04 1.036620e+05 1.059033e+05 1.069438e+05 1.070558e+05 1.073288e+05 1.077527e+05 1.080908e+05 1.080908e+05 1.081358e+05 1.083011e+05 1.084443e+05 1.084443e+05 1.088954e+05 1.088954e+05 1.094619e+05 1.097564e+05 1.098756e+05 1.102663e+05 1.106987e+05 1.117940e+05 1.117940e+05 1.130578e+05 1.130578e+05 1.137779e+05 1.152666e+05 1.156580e+05 1.166027e+05 1.170701e+05 1.184412e+05 1.194007e+05 1.203011e+05 1.217642e+05 1.222367e+05 1.238091e+05 1.254218e+05 1.266898e+05 1.278011e+05 1.278011e+05 1.288410e+05 1.310173e+05 1.310173e+05 1.332850e+05 1.339737e+05 1.339737e+05 1.354762e+05 1.369525e+05 1.369525e+05 1.383021e+05 1.391015e+05 1.403006e+05 1.403006e+05 1.410791e+05 1.422880e+05 1.429940e+05 1.441541e+05 1.445502e+05 1.034693e+05 1.127541e+05 1.127541e+05 1.127541e+05 1.133366e+05 1.096192e+05 1.096192e+05 1.096192e+05 1.103473e+05 1.103473e+05 1.142544e+05 1.142544e+05 1.142544e+05 1.144616e+05 1.140739e+05 1.021897e+05 1.107994e+05 1.107994e+05 1.102407e+05 1.129524e+05 1.129524e+05 1.129524e+05 1.125163e+05 1.121287e+05 1.265681e+05 1.265681e+05 1.265681e+05 1.259950e+05 1.056268e+05 1.056268e+05 1.056268e+05 1.052972e+05 1.049488e+05 1.049488e+05 1.121088e+05 1.121088e+05 1.096550e+05 1.092454e+05 1.034693e+05 1.034693e+05 1.073583e+05 1.073583e+05 1.073583e+05 1.071195e+05 1.066252e+05 1.066252e+05 1.069870e+05 1.108708e+05 1.108708e+05 1.108708e+05 1.109436e+05 1.102730e+05 1.118431e+05 1.117914e+05 1.069074e+05 1.069074e+05 1.069074e+05 1.060603e+05 9.927875e+04 9.707456e+04 9.523128e+04 9.707456e+04 1.231350e+05 1.231350e+05 1.231350e+05 1.277311e+05 1.277311e+05 1.277311e+05 1.266042e+05 9.238151e+04 9.158673e+04 9.238151e+04 9.238151e+04 1.208295e+05 1.208295e+05 1.208295e+05 1.208184e+05 1.314245e+05 1.314245e+05 1.314245e+05 1.310817e+05 1.362027e+05 1.362027e+05 1.362027e+05 1.352096e+05 1.352096e+05 9.554931e+04 9.554931e+04 9.554931e+04 9.516272e+04 1.009954e+05 1.009954e+05 1.009954e+05 1.001588e+05 1.001588e+05 1.410144e+05 1.410144e+05 1.410144e+05 1.414051e+05 1.134605e+05 1.134605e+05 1.134605e+05 1.135205e+05 1.135205e+05 8.940116e+04 8.980711e+04 1.368522e+05 1.368522e+05 1.368522e+05 1.365726e+05 1.396527e+05 1.396527e+05 1.396527e+05 1.401945e+05 1.401945e+05 1.180813e+05 1.180813e+05 1.180813e+05 1.178939e+05 1.382450e+05 1.382450e+05 1.382450e+05 1.378548e+05 9.530521e+04 1.264042e+05 1.264042e+05 1.264042e+05 1.205339e+05 1.205339e+05 1.205339e+05 1.201815e+05 1.148932e+05 1.148932e+05 1.148932e+05 1.146633e+05 1.054758e+05 1.026738e+05 1.026738e+05 1.026738e+05 1.023978e+05 1.108333e+05 1.108333e+05 1.108333e+05 1.109119e+05 1.109119e+05 8.980711e+04 8.980711e+04 8.940116e+04 1.362519e+05 1.362519e+05 1.362519e+05 1.373385e+05 1.373385e+05 1.134231e+05 1.140130e+05 1.140130e+05 1.308972e+05 1.308972e+05 1.308972e+05 1.320066e+05 1.320066e+05 1.295910e+05 1.295910e+05 1.295910e+05 1.299722e+05 9.596780e+04 9.505330e+04 9.596780e+04 9.596780e+04 9.646628e+04 1.102032e+05 1.102032e+05 1.102032e+05 1.109362e+05 1.120117e+05 1.131744e+05 1.131744e+05 1.049892e+05 1.049892e+05 1.034745e+05 1.034745e+05 1.147893e+05 1.147893e+05 1.147893e+05 1.163248e+05 1.163248e+05 1.042678e+05 1.042678e+05 1.042678e+05 1.042632e+05 1.036115e+05 1.085915e+05 1.070439e+05 1.213001e+05 1.213001e+05 1.213001e+05 1.208248e+05 1.254299e+05 1.254299e+05 1.254299e+05 1.247300e+05 1.155952e+05 1.155952e+05 1.155952e+05 1.295230e+05 1.295230e+05 1.295230e+05 1.050118e+05 1.050118e+05 1.050118e+05 1.334235e+05 1.334235e+05 1.334235e+05 9.598858e+04 9.598858e+04 9.598858e+04 9.594358e+04 9.526099e+04 1.056202e+05 1.056202e+05 1.056202e+05 9.730170e+04 9.730170e+04 9.744543e+04 1.178452e+05 1.178452e+05 1.178452e+05 1.185784e+05 1.080895e+05 1.080895e+05 1.080895e+05 1.080013e+05 1.041405e+05 1.041405e+05 1.397004e+05 1.397004e+05 1.397004e+05 1.390573e+05 9.225346e+04 9.225346e+04 9.225346e+04 9.227449e+04 9.891509e+04 9.891509e+04 9.891509e+04 9.907518e+04 1.363778e+05 1.363778e+05 1.363778e+05 1.221633e+05 1.221633e+05 1.221633e+05 1.223746e+05 1.094922e+05 1.094922e+05 1.094922e+05 1.095741e+05 1.090161e+05 1.090161e+05 1.090161e+05 1.088164e+05 1.146666e+05 1.146666e+05 1.146666e+05 1.151240e+05 1.432216e+05 1.432216e+05 1.432216e+05 1.412591e+05 1.412591e+05 1.412591e+05 1.412039e+05 1.395612e+05 1.395612e+05 1.395612e+05 1.391852e+05 1.370845e+05 1.370845e+05 1.367777e+05 1.217471e+05 1.217471e+05 1.216618e+05 9.939843e+04 9.939843e+04 9.949365e+04 1.120100e+05 1.120100e+05 1.120100e+05 1.122885e+05 1.171251e+05 1.171251e+05 1.171251e+05 1.411401e+05 1.411401e+05 1.409889e+05 1.194093e+05 1.194093e+05 1.190404e+05 1.127122e+05 1.382892e+05 1.381960e+05 1.017972e+05 1.017972e+05 1.013876e+05 1.431319e+05 1.431319e+05 1.431319e+05 1.433976e+05 1.165001e+05 1.165001e+05 1.346544e+05 1.346544e+05 1.346544e+05 1.437522e+05 1.437522e+05 1.437522e+05 1.435791e+05 1.435791e+05 1.420646e+05 1.420646e+05 1.420646e+05 1.424663e+05 1.400340e+05 1.400340e+05 1.400340e+05 1.397315e+05 1.397315e+05 1.045173e+05 1.045173e+05 1.045173e+05 1.039754e+05 1.039754e+05 1.401452e+05 1.401452e+05 1.407922e+05 1.407922e+05 1.422752e+05 1.422752e+05 1.422752e+05 1.363344e+05 1.363344e+05 1.363344e+05 1.370998e+05 1.020373e+05 1.020373e+05 1.020373e+05 1.019860e+05 1.019860e+05 9.107943e+04 9.107943e+04 9.107943e+04 9.189982e+04 9.189982e+04 1.109309e+05 1.109309e+05 1.109309e+05 1.122942e+05 1.122942e+05 1.231843e+05 1.231843e+05 1.231843e+05 1.238516e+05 1.238516e+05 1.286495e+05 1.286495e+05 1.286495e+05 1.299059e+05 1.305404e+05 1.305404e+05 1.338700e+05 1.338700e+05 1.338700e+05 1.325780e+05 1.325780e+05 9.898824e+04 9.898824e+04 9.898824e+04 9.955688e+04 9.955688e+04 1.078738e+05 1.078738e+05 1.078738e+05 1.095119e+05 1.095119e+05 1.082646e+05 1.082646e+05 1.066557e+05 1.066557e+05 1.176953e+05 1.176953e+05 1.190404e+05 1.190404e+05 1.085389e+05 1.068371e+05 1.068371e+05 1.163102e+05 1.163102e+05 1.163102e+05 1.166850e+05 1.166850e+05 1.137687e+05 1.137687e+05 1.053144e+05 1.053144e+05 1.053144e+05 1.055950e+05 1.117258e+05 1.009638e+05 1.003644e+05 1.078699e+05 1.078699e+05 1.078699e+05 1.081092e+05 1.081092e+05 1.000571e+05 1.000571e+05 9.927927e+04 9.893336e+04 9.934172e+04 1.316789e+05 1.316789e+05 1.316789e+05 1.308660e+05 1.354708e+05 1.354708e+05 1.348397e+05 1.098593e+05 1.098593e+05 1.098593e+05 9.313983e+04 9.313983e+04 9.313983e+04 9.282041e+04 9.264843e+04 1.415793e+05 1.415793e+05 1.415793e+05 1.154199e+05 1.000108e+05 9.450379e+04 9.450379e+04 1.389375e+05 1.389375e+05 1.245384e+05 1.247206e+05 1.247206e+05 1.247206e+05 1.284717e+05 1.284717e+05 1.284717e+05 1.282146e+05 1.452559e+05 1.448608e+05 1.448608e+05 1.441521e+05 1.441521e+05 1.441521e+05 1.442982e+05 1.050004e+05 1.050004e+05 1.046614e+05 1.067901e+05 1.448189e+05 1.448189e+05 1.416445e+05 1.416445e+05 1.090516e+05 1.090516e+05 9.736731e+04 9.736731e+04 9.736731e+04 1.438816e+05 1.438816e+05 1.440356e+05 8.953156e+04 8.953156e+04 9.009755e+04 1.403644e+05 1.435207e+05 1.430077e+05 1.430077e+05 1.430854e+05 1.235639e+05 1.235639e+05 1.235639e+05 1.235278e+05 1.324082e+05 1.324828e+05 1.451717e+05 1.446365e+05 1.359958e+05 1.359958e+05 1.332861e+05 1.332861e+05 1.332861e+05 1.333066e+05 1.082039e+05 1.082039e+05 1.076850e+05 1.076850e+05 1.205415e+05 1.426386e+05 1.426386e+05 1.421664e+05 1.272222e+05 1.272222e+05 1.272222e+05 9.652364e+04 1.449031e+05 1.441369e+05 1.302940e+05 1.302940e+05 1.302940e+05 1.300237e+05 9.636285e+04 9.636285e+04 9.623229e+04 1.295652e+05 1.295652e+05 1.295717e+05 1.009946e+05 1.009946e+05 1.108189e+05 1.108189e+05 1.445130e+05 1.378579e+05 1.377896e+05 1.288768e+05 1.436919e+05 1.436919e+05 1.342594e+05 9.876722e+04 9.825283e+04 9.825283e+04 1.062705e+05 1.062705e+05 1.059305e+05 1.059305e+05 1.420694e+05 1.420694e+05 1.252307e+05 1.438816e+05 1.225123e+05 1.225123e+05 1.227981e+05 1.310243e+05 1.310243e+05 1.310243e+05 1.446964e+05 1.446964e+05 1.149043e+05 9.422372e+04 9.422372e+04 1.321646e+05 1.317325e+05 1.351498e+05 1.198619e+05 9.047631e+04 9.104314e+04 1.427326e+05 1.278909e+05 9.167527e+04 9.167527e+04 9.167527e+04 9.099942e+04 1.414171e+05 9.004064e+04 9.871250e+04 9.871250e+04 1.342239e+05 1.325595e+05 1.032798e+05 1.032798e+05 1.429804e+05 1.429804e+05 9.326666e+04 9.326666e+04 1.065711e+05 1.262535e+05 1.262535e+05 1.013214e+05 1.065957e+05 1.142791e+05 1.140627e+05 1.253228e+05 1.253228e+05 1.245793e+05 1.245793e+05 1.001662e+05 1.142016e+05 1.442461e+05 9.147277e+04 1.133591e+05 1.336680e+05 1.389158e+05 9.101009e+04 1.025341e+05 1.031812e+05 1.059300e+05 1.328474e+05 1.326222e+05 1.444184e+05 1.444184e+05 1.254717e+05 1.248245e+05 1.366953e+05 1.044247e+05 1.394098e+05 1.394098e+05 1.352198e+05 1.352198e+05 1.352198e+05 1.118434e+05 1.243848e+05 9.726905e+04 1.405337e+05 1.408049e+05 1.408545e+05 1.408545e+05 1.408545e+05 1.311979e+05 1.311979e+05 1.311979e+05 1.314497e+05 1.440556e+05 1.237154e+05 1.236090e+05 1.129406e+05 1.129406e+05 1.129406e+05 1.340975e+05 1.340975e+05 1.340975e+05 1.347030e+05 1.290442e+05 1.290442e+05 1.295497e+05 1.209426e+05 1.204912e+05 1.000832e+05 1.003120e+05 9.836232e+04 9.836232e+04 9.806159e+04 9.399628e+04 9.399628e+04 9.376942e+04 9.376942e+04 1.048831e+05 1.432404e+05 1.105057e+05 1.441304e+05 1.437364e+05 1.432511e+05 1.432511e+05 1.428395e+05 1.428395e+05 1.352536e+05 1.364018e+05 1.187885e+05 1.415588e+05 1.415588e+05 1.352634e+05 1.352634e+05 1.401416e+05 1.161515e+05 1.161515e+05 1.161515e+05 1.379428e+05 1.159315e+05 9.520602e+04 9.520602e+04 9.520602e+04 9.539975e+04 9.539975e+04 1.301325e+05 1.302610e+05 1.434318e+05 1.434318e+05 1.439812e+05 9.258302e+04 9.298910e+04 1.282604e+05 1.282604e+05 1.254246e+05 1.317415e+05 1.417677e+05 9.678481e+04 9.678481e+04 9.678481e+04 9.751090e+04 1.436364e+05 1.436364e+05 1.433754e+05 1.430215e+05 1.422791e+05 1.422791e+05 1.069044e+05 1.069044e+05 1.069044e+05 1.081758e+05 9.910181e+04 1.083374e+05 1.077173e+05 1.077173e+05 1.220766e+05 1.187143e+05 1.187143e+05 1.195328e+05 1.360793e+05 1.350574e+05 1.350574e+05 1.419004e+05 1.419004e+05 8.980266e+04 1.231083e+05 1.231083e+05 1.122155e+05 1.113207e+05 1.113207e+05 1.171837e+05 1.173271e+05 1.230734e+05 1.403389e+05 9.857157e+04 9.857157e+04 9.857157e+04 1.033669e+05 1.416667e+05 1.413527e+05 1.158449e+05 1.158449e+05 1.401021e+05 1.401021e+05 1.401021e+05 1.298887e+05 1.298887e+05 1.298887e+05 1.249375e+05 1.056396e+05 1.287458e+05 1.287458e+05 1.287458e+05 9.341130e+04 1.432248e+05 1.037292e+05 1.047511e+05 1.220518e+05 1.220943e+05 1.220943e+05 1.273136e+05 1.200593e+05 1.422091e+05 1.424348e+05 1.424348e+05 1.184293e+05 1.390132e+05 1.390132e+05 1.388467e+05 1.383980e+05 1.401320e+05 1.394315e+05 1.394315e+05 1.378694e+05 1.279697e+05 1.279697e+05 1.275583e+05 1.275583e+05 1.387552e+05 1.387552e+05 1.378467e+05 1.378467e+05 1.170925e+05 1.425653e+05 1.417979e+05 1.206228e+05 1.206228e+05 1.336476e+05 9.109576e+04 1.347134e+05 1.372185e+05 1.328604e+05 1.328604e+05 1.127876e+05 9.940372e+04 1.300531e+05 1.396073e+05 1.398451e+05 1.398451e+05 9.810406e+04 1.304190e+05 1.304190e+05 1.311400e+05 1.163296e+05 1.163296e+05 1.163296e+05 1.091978e+05 1.263401e+05 9.586963e+04 9.586963e+04 9.607411e+04 1.338965e+05 1.338965e+05 1.295295e+05 1.405227e+05 1.405227e+05 1.405227e+05 1.233498e+05 1.413334e+05 1.251268e+05 1.321735e+05 1.316796e+05 1.197312e+05 1.192030e+05 1.192030e+05 1.066228e+05 1.060754e+05 1.060754e+05 9.418216e+04 9.368041e+04 1.052021e+05 1.044917e+05 1.044917e+05 1.404724e+05 1.404724e+05 1.404724e+05 1.387399e+05 1.379825e+05 1.379825e+05 1.100932e+05 1.408682e+05 1.325171e+05 1.210421e+05 1.210421e+05 9.008283e+04 9.008283e+04 1.013935e+05 1.418495e+05 1.418495e+05 1.118967e+05 1.350344e+05 1.340182e+05 1.340182e+05 1.243204e+05 1.243204e+05 1.334323e+05 1.334323e+05 1.191539e+05 1.177682e+05 1.028240e+05 1.309582e+05 1.410218e+05 1.410218e+05 1.383208e+05 1.288200e+05 1.288200e+05 1.274670e+05 1.274670e+05 8.990419e+04 1.179496e+05 1.070964e+05 1.076883e+05 1.219728e+05 1.213159e+05 1.011456e+05 1.264389e+05 1.264389e+05 1.264389e+05 1.391257e+05 1.391257e+05 1.399919e+05 1.025012e+05 1.025012e+05 1.025012e+05 9.807358e+04 9.807358e+04 1.341646e+05 1.341646e+05 1.350795e+05 1.395338e+05 1.391839e+05 1.158020e+05 1.369337e+05 1.369337e+05 1.364024e+05 1.203535e+05 1.380183e+05 1.380183e+05 1.252331e+05 1.060872e+05 1.060872e+05 1.060872e+05 1.047560e+05 1.296382e+05 9.162418e+04 9.286798e+04 9.429341e+04 9.640051e+04 1.290166e+05 1.280286e+05 1.094543e+05 1.404357e+05 1.383214e+05 1.383214e+05 1.383214e+05 1.385888e+05 1.084116e+05 1.390444e+05 1.350618e+05 1.353332e+05 1.255507e+05 1.255507e+05 1.255507e+05 1.148704e+05 1.148704e+05 1.148704e+05 1.172388e+05 1.172388e+05 1.375539e+05 1.369225e+05 1.369225e+05 1.369225e+05 1.171392e+05 1.323571e+05 1.323571e+05 1.323571e+05 1.192746e+05 1.269135e+05 1.269135e+05 1.269135e+05 1.007092e+05 1.007092e+05 1.007092e+05 9.569246e+04 1.072647e+05 1.353020e+05 1.353020e+05 1.320798e+05 1.384947e+05 1.121124e+05 1.104621e+05 1.104621e+05 1.104621e+05 1.222578e+05 1.344581e+05 1.339538e+05 1.019756e+05 1.010325e+05 1.197060e+05 9.274581e+04 1.358567e+05 1.358567e+05 1.371481e+05 1.370126e+05 1.297834e+05 1.180466e+05 1.359819e+05 1.099680e+05 1.099680e+05 1.162253e+05 1.211491e+05 1.143803e+05 1.143803e+05 1.138558e+05 1.122969e+05 9.893204e+04 9.893204e+04 1.254860e+05 1.254860e+05 1.264199e+05 1.280420e+05 1.345281e+05 1.340875e+05 1.183169e+05 1.194984e+05 1.297440e+05 1.378958e+05 1.372325e+05 1.002684e+05 9.482497e+04 9.482497e+04 9.482497e+04 1.347068e+05 1.347068e+05 1.236814e+05 1.236814e+05 1.228052e+05 1.331483e+05 1.289264e+05 1.278400e+05 1.278400e+05 1.059781e+05 1.059781e+05 1.071617e+05 1.034904e+05 1.034904e+05 1.155381e+05 1.027872e+05 1.016043e+05 1.109552e+05 1.083919e+05 1.118141e+05 1.133337e+05 1.286569e+05 1.239604e+05 1.239604e+05 1.239604e+05 1.260056e+05 1.334367e+05 1.358452e+05 1.177735e+05 1.333626e+05 1.230707e+05 1.230707e+05 1.246830e+05 1.204904e+05 1.204904e+05 1.195386e+05 1.195386e+05 1.132238e+05 1.138637e+05 9.539947e+04 9.599297e+04 1.182352e+05 1.050398e+05 1.222626e+05 1.222626e+05 1.154787e+05 1.154787e+05 1.154787e+05 1.141612e+05 1.325333e+05 1.316561e+05 1.162823e+05 1.006801e+05 1.110762e+05 1.258390e+05 1.177493e+05 1.177493e+05 1.224521e+05 1.224521e+05 1.032141e+05 1.032141e+05 1.204267e+05 1.320654e+05 1.292079e+05 1.292079e+05 1.277585e+05 9.711453e+04 1.221739e+05 1.307855e+05 1.117125e+05 1.117125e+05 1.106047e+05 1.157299e+05 1.167524e+05 1.281791e+05 1.281791e+05 1.119760e+05 1.119760e+05 1.053409e+05 1.035956e+05 1.035956e+05 1.140695e+05 1.258795e+05 1.012663e+05 1.206778e+05 1.244612e+05 1.273048e+05 9.745264e+04 1.048557e+05 1.216817e+05 1.216817e+05 1.243455e+05 9.855189e+04 9.646628e+04 1.021435e+05 1.021435e+05 1.021435e+05 1.038258e+05 1.141197e+05 1.141197e+05 1.239129e+05 1.239129e+05 1.219558e+05 1.219558e+05 1.158251e+05 9.980808e+04 9.887396e+04 1.179586e+05 1.179586e+05 1.179586e+05 1.175697e+05 1.097243e+05 1.097243e+05 1.180039e+05 1.180039e+05 1.143233e+05 1.143233e+05 1.138205e+05 9.643707e+04 9.643707e+04 9.643707e+04 9.526296e+04 1.127443e+05 1.110108e+05 1.110108e+05 1.007838e+05 1.032382e+05 9.707456e+04 9.802609e+04 9.955790e+04 9.955790e+04 1.113547e+05 1.193623e+05 1.059742e+05 1.062765e+05 1.112239e+05 1.046618e+05 1.046618e+05 1.149339e+05 1.144882e+05 1.199477e+05 1.016924e+05 1.016924e+05 1.000776e+05 1.176803e+05 1.176803e+05 1.152890e+05 1.014859e+05 1.003070e+05 1.003070e+05 1.003070e+05 9.885027e+04 1.137726e+05 9.951267e+04 1.028848e+05 1.090955e+05 9.951267e+04 1.041129e+05 1.009576e+05 1.009576e+05 1.078136e+05 1.072297e+05 1.035487e+05 1.029430e+05 1.073606e+05 1.073606e+05 1.073606e+05 1.030861e+05 1.082938e+05 1.082938e+05 1.082938e+05 1.064692e+05 1.064692e+05 1.053582e+05 1.038036e+05 1.071895e+05 1.047246e+05 1.042713e+05 1.063484e+05 1.050994e+05 1.057765e+05 1.070880e+05 1.070880e+05 1.036494e+05 1.036494e+05 1.044201e+05 1.072650e+05 1.072650e+05 1.072650e+05 1.075991e+05 1.075991e+05 1.062184e+05 1.062184e+05 1.062184e+05 1.254788e+05 1.263956e+05 1.263956e+05 1.263956e+05 1.021897e+05 1.021897e+05 1.266759e+05 1.266759e+05 1.266759e+05 1.277151e+05 1.277151e+05 1.041561e+05 1.029671e+05 1.248076e+05 1.248076e+05 1.239350e+05 1.021512e+05 1.283824e+05 1.276900e+05 1.279163e+05 1.009638e+05 1.026013e+05 1.029295e+05 1.082724e+05 1.082724e+05 1.085197e+05 1.402458e+05 1.165599e+05 1.165599e+05 1.165599e+05 1.146039e+05 1.219135e+05 1.219135e+05 1.219135e+05 1.224964e+05 1.218126e+05 1.218126e+05 1.350129e+05 1.181088e+05 1.181088e+05 1.181088e+05 1.179431e+05 1.102906e+05 1.390754e+05 1.390754e+05 1.390754e+05 1.216279e+05 1.335497e+05 1.335497e+05 1.302313e+05 1.302313e+05 1.302313e+05 1.199731e+05 1.199731e+05 1.199731e+05 1.230519e+05 1.201552e+05 1.201552e+05 1.204976e+05 1.246187e+05 1.162621e+05 1.205198e+05 1.193958e+05 1.187347e+05 1.154381e+05 1.140305e+05 1.173257e+05 1.129247e+05 1.113570e+05 1.127193e+05 1.127193e+05 1.108251e+05 1.108251e+05 1.108251e+05 1.080908e+05 1.369890e+05 1.239393e+05 1.239393e+05 1.202839e+05 1.185738e+05 1.157721e+05 1.157721e+05 1.328575e+05 1.328575e+05 1.287442e+05 1.287442e+05 1.248350e+05 1.229498e+05 1.174015e+05 1.140071e+05 1.109641e+05 1.109641e+05 1.084406e+05 1.092905e+05 1.367243e+05 1.367243e+05 1.152460e+05 1.114280e+05 1.114280e+05 1.129409e+05 1.115848e+05 1.105778e+05 1.094948e+05 1.094948e+05 1.094948e+05 1.096894e+05 1.096894e+05 1.091729e+05 1.089416e+05 1.089416e+05 1.089416e+05 1.111284e+05 1.111284e+05 1.029572e+05 1.085743e+05 1.085743e+05 1.087934e+05 1.084425e+05 1.084425e+05 1.034083e+05 1.045659e+05 1.034768e+05 1.082946e+05 1.082946e+05 1.082946e+05 1.080456e+05 1.091863e+05 1.059295e+05 1.081781e+05 1.275074e+05 1.075197e+05 1.069772e+05 1.078215e+05 1.077527e+05 1.288166e+05 1.317764e+05 1.317764e+05 1.337263e+05 1.337263e+05 1.358517e+05 1.358517e+05 1.358517e+05 1.374279e+05 1.380463e+05 1.380463e+05 1.380463e+05 1.414938e+05 1.081596e+05 1.085310e+05 1.085310e+05 1.085310e+05 1.089210e+05 1.094787e+05 1.098254e+05 1.149414e+05 1.093231e+05 1.099318e+05 1.102055e+05 1.100561e+05 1.108022e+05 1.105203e+05 1.097949e+05 1.086346e+05 1.092848e+05 1.087472e+05 1.087472e+05 1.083311e+05 1.083311e+05 1.093225e+05 1.087211e+05 1.081789e+05 1.080167e+05 1.292558e+05 1.308094e+05 1.371147e+05 1.430085e+05 1.452274e+05 1.452063e+05 1.451733e+05 1.451897e+05 1.451157e+05 1.450846e+05 1.450135e+05 1.449343e+05 1.448586e+05 1.447839e+05 1.446744e+05 1.059035e+05 1.059035e+05 1.070574e+05 1.070574e+05 1.073301e+05 1.077471e+05 1.080313e+05 1.080313e+05 1.080313e+05 1.080574e+05 1.076496e+05 1.076496e+05 1.069771e+05 1.069771e+05 1.069771e+05 1.107128e+05 1.107128e+05 1.107128e+05 1.110523e+05 1.110523e+05 1.067508e+05 1.067508e+05 1.067508e+05 1.071272e+05 1.059035e+05 1.058753e+05 1.058753e+05 1.079937e+05 1.089872e+05 1.089872e+05 1.440027e+05 1.440027e+05 1.440027e+05 1.446175e+05 1.446175e+05 1.069439e+05 1.075289e+05 1.075289e+05 1.442899e+05 1.442899e+05 1.439568e+05 1.339920e+05 1.339920e+05 1.339920e+05 1.276126e+05 1.276126e+05 1.276126e+05 1.259598e+05 1.259598e+05 1.084055e+05 1.407101e+05 1.407101e+05 1.407101e+05 1.403011e+05 1.447331e+05 1.447331e+05 1.447331e+05 1.445167e+05 1.440892e+05 1.426528e+05 1.426528e+05 1.426528e+05 1.447536e+05 1.440416e+05 1.440416e+05 1.440416e+05 1.442844e+05 1.307350e+05 1.324246e+05 1.307350e+05 1.307350e+05 1.117216e+05 1.117216e+05 1.056693e+05 1.348880e+05 1.348880e+05 1.447607e+05 1.447839e+05 1.446615e+05 1.446615e+05 1.442844e+05 1.429940e+05 1.422880e+05 1.440823e+05 1.437587e+05 1.430721e+05 1.430721e+05 1.431078e+05 1.425500e+05 1.432021e+05 1.431078e+05 1.426824e+05 1.415197e+05 1.415197e+05 1.417812e+05 1.417812e+05 1.421954e+05 1.412681e+05 1.411735e+05 1.405976e+05 1.405976e+05 1.399874e+05 1.405595e+05 1.390632e+05 1.373802e+05 1.373802e+05 1.324246e+05 1.286850e+05 1.286850e+05 1.270243e+05 1.270243e+05 1.256172e+05 1.245229e+05 1.209089e+05 1.096968e+05 1.056693e+05 1.056693e+05 1.087795e+05 1.087795e+05 1.087795e+05 1.086438e+05 1.074474e+05 1.090888e+05 1.090888e+05 1.090888e+05 1.090279e+05 1.101881e+05 1.101881e+05 1.101881e+05 1.100261e+05 1.097564e+05 1.136564e+05 1.136564e+05 1.136564e+05 1.142148e+05 1.182092e+05 1.182092e+05 1.182092e+05 1.179817e+05 1.171116e+05 1.145161e+05 1.145161e+05 1.139718e+05 1.231087e+05 1.231087e+05 1.231087e+05 1.238091e+05 1.238091e+05 1.216759e+05 1.216759e+05 1.216759e+05 1.112000e+05 1.112000e+05 1.213382e+05 1.213382e+05 1.213382e+05 1.206918e+05 1.206918e+05 1.304930e+05 1.304930e+05 1.304930e+05 1.265294e+05 1.265294e+05 1.265294e+05 1.188197e+05 1.188197e+05 1.188197e+05 1.099757e+05 1.261533e+05 1.254750e+05 1.210614e+05 1.203011e+05 1.302348e+05 1.271594e+05 1.271594e+05 1.176923e+05 1.176923e+05 1.207587e+05 1.195100e+05 1.243193e+05 1.243193e+05 1.243193e+05 1.303254e+05 1.348880e+05 1.210470e+05 1.161597e+05 1.161597e+05 1.161597e+05 1.237634e+05 1.194450e+05 1.163442e+05 1.146920e+05 1.130986e+05 1.175299e+05 1.131055e+05 1.126309e+05 1.123492e+05 1.123492e+05 1.080550e+05 1.354762e+05 1.354762e+05 1.258683e+05 1.156580e+05 1.156580e+05 1.237861e+05 1.385710e+05 1.139502e+05 1.139502e+05 1.115830e+05 1.115830e+05 1.115830e+05 1.221117e+05 1.274101e+05 1.118192e+05 1.135339e+05 1.117025e+05 1.107235e+05 1.106829e+05 1.106829e+05 1.106829e+05 1.097964e+05 1.097964e+05 1.102134e+05 1.100802e+05 1.100802e+05 1.094112e+05 1.093199e+05 1.084055e+05 1.089404e+05 1.089404e+05 1.079264e+05 1.082133e+05 1.267824e+05 1.341571e+05 1.341571e+05 1.376138e+05 1.376138e+05 1.312934e+05 1.075034e+05 1.166027e+05 1.253197e+05 1.278011e+05 1.283557e+05 1.302972e+05 1.302972e+05 1.325011e+05 1.325011e+05 1.325011e+05 1.343843e+05 1.358541e+05 1.369525e+05 1.383021e+05 1.383021e+05 1.383796e+05 1.419475e+05 1.117940e+05 1.130578e+05 1.296556e+05 1.391015e+05 1.137779e+05 1.146299e+05 1.114787e+05 1.106987e+05 1.120744e+05 1.108469e+05 1.094619e+05 1.128974e+05 1.096269e+05 1.096269e+05 1.092725e+05 1.092004e+05 1.084443e+05 1.084186e+05 1.084186e+05 1.083011e+05 1.086748e+05 1.087280e+05 1.283858e+05 1.316126e+05 1.352075e+05 1.395940e+05 1.352091e+05 1.365464e+05 1.320262e+05 1.389616e+05 1.364735e+05 1.081958e+05 1.070574e+05 1.452274e+05 1.452263e+05 1.452559e+05 1.451717e+05 1.450936e+05 1.450448e+05 1.449648e+05 1.449031e+05 1.448270e+05 1.447677e+05 1.446618e+05 1.445470e+05 1.443982e+05 1.442550e+05 1.440718e+05 1.439562e+05 1.438145e+05 1.436389e+05 1.434279e+05 1.432285e+05 1.430534e+05 1.427978e+05 1.426011e+05 1.423909e+05 1.421920e+05 1.420014e+05 1.417119e+05 1.414549e+05 1.411689e+05 1.408117e+05 1.404586e+05 1.402359e+05 1.398848e+05 1.396600e+05 1.393211e+05 1.389508e+05 1.386023e+05 1.383076e+05 1.378579e+05 1.374415e+05 1.370781e+05 1.366893e+05 1.363273e+05 1.358991e+05 1.355286e+05 1.351072e+05 1.346774e+05 1.342239e+05 1.337659e+05 1.333005e+05 1.328858e+05 1.324082e+05 1.319733e+05 1.313992e+05 1.309082e+05 1.303880e+05 1.299471e+05 1.294932e+05 1.289694e+05 1.284738e+05 1.279773e+05 1.274715e+05 1.268284e+05 1.263230e+05 1.256603e+05 1.251559e+05 1.245384e+05 1.240028e+05 1.234153e+05 1.228945e+05 1.222541e+05 1.216490e+05 1.210541e+05 1.203429e+05 1.199207e+05 1.193593e+05 1.187751e+05 1.181725e+05 1.175208e+05 1.168594e+05 1.163039e+05 1.157072e+05 1.150397e+05 1.144458e+05 1.138304e+05 1.132094e+05 1.125088e+05 1.118679e+05 1.112940e+05 1.106983e+05 1.100843e+05 1.093576e+05 1.087898e+05 1.080404e+05 1.074484e+05 1.067901e+05 1.060919e+05 1.054758e+05 1.048586e+05 1.042259e+05 1.036326e+05 1.029787e+05 1.023702e+05 1.017031e+05 1.011039e+05 1.003783e+05 9.973897e+04 9.908179e+04 9.844813e+04 9.780980e+04 9.723185e+04 9.652364e+04 9.593644e+04 9.530521e+04 9.473106e+04 9.413029e+04 9.344269e+04 9.285151e+04 9.227530e+04 9.172751e+04 9.104314e+04 9.047631e+04 8.978653e+04 8.978653e+04 1.036620e+05 1.036620e+05 1.067914e+05 1.070558e+05 1.073288e+05 1.077527e+05 1.080908e+05 1.080908e+05 1.081358e+05 1.083011e+05 1.084443e+05 1.084443e+05 1.088954e+05 1.088954e+05 1.094619e+05 1.097564e+05 1.098756e+05 1.102663e+05 1.106987e+05 1.117940e+05 1.117940e+05 1.130578e+05 1.130578e+05 1.137779e+05 1.152666e+05 1.156580e+05 1.166027e+05 1.170701e+05 1.184412e+05 1.194007e+05 1.203011e+05 1.217642e+05 1.222367e+05 1.238091e+05 1.254218e+05 1.266898e+05 1.278011e+05 1.278011e+05 1.288410e+05 1.310173e+05 1.310173e+05 1.332850e+05 1.339737e+05 1.339737e+05 1.354762e+05 1.369525e+05 1.369525e+05 1.383021e+05 1.391015e+05 1.403006e+05 1.403006e+05 1.410791e+05 1.422880e+05 1.429940e+05 1.441541e+05 1.445502e+05 1.034693e+05 1.127541e+05 1.127541e+05 1.127541e+05 1.133366e+05 1.096192e+05 1.096192e+05 1.096192e+05 1.103473e+05 1.103473e+05 1.142544e+05 1.142544e+05 1.142544e+05 1.144616e+05 1.140739e+05 1.021897e+05 1.107994e+05 1.107994e+05 1.102407e+05 1.129524e+05 1.129524e+05 1.129524e+05 1.125163e+05 1.121287e+05 1.265681e+05 1.265681e+05 1.265681e+05 1.259950e+05 1.056268e+05 1.056268e+05 1.056268e+05 1.052972e+05 1.049488e+05 1.049488e+05 1.121088e+05 1.121088e+05 1.096550e+05 1.092454e+05 1.034693e+05 1.034693e+05 1.073583e+05 1.073583e+05 1.073583e+05 1.071195e+05 1.066252e+05 1.066252e+05 1.069870e+05 1.108708e+05 1.108708e+05 1.108708e+05 1.109436e+05 1.102730e+05 1.118431e+05 1.117914e+05 1.069074e+05 1.069074e+05 1.069074e+05 1.060603e+05 9.927875e+04 9.707456e+04 9.523128e+04 9.707456e+04 1.231350e+05 1.231350e+05 1.231350e+05 1.277311e+05 1.277311e+05 1.277311e+05 1.266042e+05 9.238151e+04 9.158673e+04 9.238151e+04 9.238151e+04 1.208295e+05 1.208295e+05 1.208295e+05 1.208184e+05 1.314245e+05 1.314245e+05 1.314245e+05 1.310817e+05 1.362027e+05 1.362027e+05 1.362027e+05 1.352096e+05 1.352096e+05 9.554931e+04 9.554931e+04 9.554931e+04 9.516272e+04 1.009954e+05 1.009954e+05 1.009954e+05 1.001588e+05 1.001588e+05 1.410144e+05 1.410144e+05 1.410144e+05 1.414051e+05 1.134605e+05 1.134605e+05 1.134605e+05 1.135205e+05 1.135205e+05 8.940116e+04 8.980711e+04 1.368522e+05 1.368522e+05 1.368522e+05 1.365726e+05 1.396527e+05 1.396527e+05 1.396527e+05 1.401945e+05 1.401945e+05 1.180813e+05 1.180813e+05 1.180813e+05 1.178939e+05 1.382450e+05 1.382450e+05 1.382450e+05 1.378548e+05 9.530521e+04 1.264042e+05 1.264042e+05 1.264042e+05 1.205339e+05 1.205339e+05 1.205339e+05 1.201815e+05 1.148932e+05 1.148932e+05 1.148932e+05 1.146633e+05 1.054758e+05 1.026738e+05 1.026738e+05 1.026738e+05 1.023978e+05 1.108333e+05 1.108333e+05 1.108333e+05 1.109119e+05 1.109119e+05 8.980711e+04 8.980711e+04 8.940116e+04 1.362519e+05 1.362519e+05 1.362519e+05 1.373385e+05 1.373385e+05 1.134231e+05 1.140130e+05 1.140130e+05 1.308972e+05 1.308972e+05 1.308972e+05 1.320066e+05 1.320066e+05 1.295910e+05 1.295910e+05 1.295910e+05 1.299722e+05 9.596780e+04 9.505330e+04 9.596780e+04 9.596780e+04 9.646628e+04 1.102032e+05 1.102032e+05 1.102032e+05 1.109362e+05 1.120117e+05 1.131744e+05 1.131744e+05 1.049892e+05 1.049892e+05 1.034745e+05 1.034745e+05 1.147893e+05 1.147893e+05 1.147893e+05 1.163248e+05 1.163248e+05 1.042678e+05 1.042678e+05 1.042678e+05 1.042632e+05 1.036115e+05 1.085915e+05 1.070439e+05 1.213001e+05 1.213001e+05 1.213001e+05 1.208248e+05 1.254299e+05 1.254299e+05 1.254299e+05 1.247300e+05 1.155952e+05 1.155952e+05 1.155952e+05 1.295230e+05 1.295230e+05 1.295230e+05 1.050118e+05 1.050118e+05 1.050118e+05 1.334235e+05 1.334235e+05 1.334235e+05 9.598858e+04 9.598858e+04 9.598858e+04 9.594358e+04 9.526099e+04 1.056202e+05 1.056202e+05 1.056202e+05 9.730170e+04 9.730170e+04 9.744543e+04 1.178452e+05 1.178452e+05 1.178452e+05 1.185784e+05 1.080895e+05 1.080895e+05 1.080895e+05 1.080013e+05 1.041405e+05 1.041405e+05 1.397004e+05 1.397004e+05 1.397004e+05 1.390573e+05 9.225346e+04 9.225346e+04 9.225346e+04 9.227449e+04 9.891509e+04 9.891509e+04 9.891509e+04 9.907518e+04 1.363778e+05 1.363778e+05 1.363778e+05 1.221633e+05 1.221633e+05 1.221633e+05 1.223746e+05 1.094922e+05 1.094922e+05 1.094922e+05 1.095741e+05 1.090161e+05 1.090161e+05 1.090161e+05 1.088164e+05 1.146666e+05 1.146666e+05 1.146666e+05 1.151240e+05 