<?xml version="1.0"?>
 <VTKFile type="UnstructuredGrid" version="1.0" byte_order="LittleEndian" header_type="UInt64">
  <UnstructuredGrid>
    <FieldData>
     <DataArray type="Float64" Name="TimeValue" NumberOfTuples="1" format="ascii">
7e-05
     </DataArray>
    </FieldData>
   <Piece NumberOfPoints="3468" NumberOfCells="3392">
    <PointData>
     <DataArray type="Float64" Name="pointP" format="ascii">
9.321998e+04 9.332058e+04 9.351955e+04 9.389536e+04 9.395785e+04 9.429008e+04 9.429008e+04 9.446164e+04 9.471382e+04 9.501011e+04 9.501011e+04 9.526041e+04 9.533663e+04 9.566277e+04 9.566277e+04 9.581882e+04 9.597645e+04 9.617786e+04 9.643279e+04 9.650251e+04 9.657484e+04 9.687077e+04 9.699986e+04 9.699986e+04 9.724414e+04 9.735062e+04 9.739711e+04 9.751901e+04 9.777004e+04 9.783096e+04 9.794126e+04 9.805109e+04 9.814497e+04 9.822787e+04 9.832893e+04 9.843403e+04 9.859261e+04 9.872343e+04 9.880760e+04 9.889319e+04 9.897640e+04 9.901017e+04 9.913730e+04 9.925962e+04 9.932510e+04 9.935224e+04 9.947141e+04 9.954321e+04 9.957860e+04 9.964966e+04 9.971761e+04 9.979975e+04 9.992099e+04 9.992099e+04 1.000407e+05 1.000407e+05 1.001140e+05 1.002097e+05 1.002323e+05 1.002731e+05 1.003643e+05 1.004090e+05 1.004090e+05 1.004519e+05 1.005128e+05 1.005356e+05 1.006046e+05 1.006541e+05 1.006541e+05 1.007159e+05 1.007258e+05 1.007558e+05 1.007955e+05 1.008431e+05 1.008431e+05 1.008737e+05 1.009097e+05 1.009295e+05 1.009494e+05 1.009857e+05 1.010038e+05 1.010038e+05 1.010263e+05 1.010512e+05 1.010732e+05 1.010732e+05 1.010876e+05 1.011134e+05 1.011134e+05 1.011374e+05 1.011502e+05 1.011502e+05 1.011598e+05 1.011684e+05 1.011823e+05 1.011855e+05 1.012007e+05 1.012078e+05 1.012078e+05 1.012180e+05 1.012263e+05 1.012263e+05 1.012320e+05 1.012395e+05 1.012434e+05 1.012528e+05 1.012528e+05 1.012605e+05 1.012670e+05 1.012670e+05 1.012760e+05 1.012778e+05 1.012853e+05 1.012895e+05 1.012895e+05 1.012984e+05 1.013019e+05 1.013035e+05 1.013100e+05 1.013125e+05 1.013181e+05 1.013250e+05 1.013250e+05 1.013250e+05 1.013250e+05 1.013250e+05 1.012846e+05 1.012683e+05 1.012900e+05 1.014244e+05 1.021501e+05 1.021501e+05 1.027312e+05 1.027312e+05 1.006266e+05 1.006266e+05 1.006266e+05 1.006964e+05 1.006964e+05 1.013098e+05 1.013098e+05 9.993409e+04 9.993409e+04 9.993409e+04 1.003383e+05 1.003383e+05 1.010389e+05 1.010389e+05 1.010389e+05 1.012814e+05 1.017318e+05 1.017318e+05 1.015819e+05 1.012763e+05 1.012763e+05 1.012763e+05 1.012812e+05 1.012812e+05 1.012721e+05 1.012883e+05 1.012883e+05 1.012806e+05 1.013111e+05 1.012946e+05 1.012922e+05 1.013129e+05 1.013129e+05 1.013171e+05 1.013171e+05 1.013194e+05 1.013214e+05 1.000769e+05 1.000769e+05 1.000769e+05 9.989639e+04 9.989639e+04 9.971792e+04 9.766051e+04 9.766051e+04 9.766051e+04 9.764475e+04 9.768701e+04 1.004492e+05 9.931992e+04 9.931992e+04 9.939723e+04 9.778803e+04 9.778803e+04 9.783400e+04 9.932147e+04 9.932147e+04 9.932147e+04 9.302682e+04 9.302682e+04 9.302682e+04 9.383598e+04 9.383598e+04 9.383598e+04 1.006079e+05 1.006079e+05 1.006079e+05 9.630702e+04 9.630702e+04 9.630702e+04 9.867505e+04 9.867505e+04 9.867505e+04 9.871495e+04 9.585263e+04 9.585263e+04 9.762791e+04 9.762791e+04 9.762791e+04 9.326847e+04 9.350697e+04 9.750618e+04 9.750618e+04 1.000955e+05 1.000955e+05 1.000955e+05 1.002832e+05 1.002832e+05 9.997248e+04 1.002210e+05 1.002210e+05 1.016437e+05 1.016437e+05 1.016437e+05 1.008224e+05 1.008224e+05 9.693741e+04 9.693741e+04 9.693741e+04 9.748095e+04 9.515486e+04 9.634547e+04 9.848902e+04 9.848902e+04 9.800313e+04 9.800313e+04 9.800313e+04 9.572265e+04 9.514719e+04 9.514719e+04 9.671976e+04 9.671976e+04 9.671976e+04 1.003929e+05 1.003929e+05 1.003929e+05 9.756854e+04 9.756854e+04 9.756854e+04 1.016945e+05 1.012273e+05 9.333801e+04 9.333801e+04 9.333801e+04 9.382598e+04 9.930828e+04 9.930828e+04 9.396855e+04 9.824259e+04 9.824259e+04 9.824259e+04 9.355470e+04 9.355470e+04 9.833597e+04 9.833597e+04 9.714392e+04 9.714392e+04 9.714392e+04 9.528810e+04 9.528810e+04 9.528810e+04 9.539500e+04 9.539500e+04 9.539500e+04 9.375290e+04 9.375290e+04 9.849065e+04 9.849065e+04 9.431072e+04 9.431072e+04 9.431072e+04 9.842795e+04 9.895827e+04 9.895827e+04 9.895827e+04 9.395159e+04 9.847776e+04 9.847776e+04 9.686043e+04 9.686043e+04 9.686043e+04 9.943670e+04 9.943670e+04 9.943670e+04 9.547591e+04 9.586192e+04 9.586192e+04 9.586192e+04 9.474324e+04 9.474324e+04 9.474324e+04 9.355301e+04 9.362597e+04 9.651017e+04 9.651017e+04 9.651017e+04 9.675056e+04 9.675056e+04 9.937655e+04 9.937655e+04 9.937655e+04 9.412079e+04 9.412079e+04 9.412079e+04 9.416518e+04 9.421906e+04 9.410152e+04 9.410152e+04 9.889214e+04 9.889214e+04 9.889214e+04 9.472431e+04 9.472431e+04 9.644129e+04 9.644129e+04 9.320888e+04 9.451486e+04 9.451486e+04 9.567658e+04 9.567658e+04 9.567658e+04 9.791148e+04 9.450815e+04 9.530462e+04 9.530462e+04 9.835010e+04 9.835010e+04 9.798031e+04 9.798031e+04 9.798031e+04 9.687378e+04 9.687378e+04 1.001651e+05 1.001651e+05 1.001651e+05 9.955067e+04 9.955067e+04 9.955067e+04 9.752497e+04 9.397498e+04 9.917324e+04 9.917324e+04 9.917324e+04 9.650228e+04 9.650228e+04 9.650228e+04 9.590031e+04 9.586858e+04 9.397498e+04 9.688265e+04 9.973289e+04 9.973289e+04 9.973289e+04 9.725946e+04 9.725946e+04 9.997099e+04 9.997099e+04 9.997099e+04 9.747859e+04 9.747859e+04 9.747859e+04 9.716652e+04 1.002831e+05 1.002831e+05 1.002831e+05 9.748738e+04 9.640182e+04 9.640182e+04 9.699062e+04 9.889785e+04 9.889785e+04 9.715746e+04 9.783689e+04 9.783689e+04 9.800779e+04 9.800779e+04 9.771970e+04 9.682617e+04 9.948700e+04 9.948700e+04 9.948700e+04 9.810706e+04 1.002661e+05 1.002661e+05 9.526979e+04 9.820266e+04 9.820266e+04 9.821147e+04 1.007924e+05 1.007924e+05 1.007924e+05 1.000928e+05 1.000928e+05 9.844512e+04 9.844512e+04 9.864880e+04 9.864880e+04 9.730649e+04 9.990932e+04 9.990932e+04 9.990932e+04 9.923762e+04 9.923762e+04 9.923762e+04 9.634547e+04 9.993970e+04 9.993970e+04 9.921649e+04 9.916540e+04 9.569888e+04 9.713051e+04 9.772460e+04 9.772460e+04 1.004011e+05 1.004011e+05 1.004011e+05 9.869407e+04 1.009635e+05 1.009635e+05 1.009635e+05 9.911578e+04 9.911578e+04 9.878637e+04 9.762031e+04 1.007824e+05 1.007824e+05 1.007824e+05 1.004911e+05 1.004911e+05 1.004911e+05 1.006436e+05 1.006436e+05 1.003127e+05 1.003127e+05 1.001963e+05 1.001963e+05 1.000912e+05 9.815522e+04 9.815522e+04 9.878684e+04 9.878684e+04 9.953265e+04 9.953265e+04 9.807321e+04 1.009467e+05 1.010058e+05 1.010058e+05 1.010058e+05 9.941565e+04 1.005110e+05 1.005110e+05 9.969801e+04 9.969801e+04 1.001477e+05 9.833471e+04 9.945693e+04 1.000851e+05 1.000851e+05 1.002366e+05 1.002366e+05 9.917926e+04 1.010510e+05 1.010510e+05 1.010510e+05 1.011358e+05 1.011358e+05 1.011358e+05 9.973410e+04 9.973410e+04 9.973410e+04 9.948045e+04 9.948045e+04 1.012831e+05 1.012831e+05 1.012831e+05 1.010326e+05 1.010326e+05 1.010326e+05 1.004907e+05 1.010905e+05 1.010905e+05 1.010905e+05 1.005964e+05 1.005964e+05 9.979712e+04 1.010445e+05 1.010445e+05 1.012168e+05 1.012168e+05 1.012168e+05 9.992662e+04 9.992662e+04 1.003889e+05 1.003889e+05 1.007826e+05 1.007826e+05 1.007826e+05 1.011982e+05 1.011982e+05 1.011982e+05 1.007484e+05 1.012034e+05 1.012034e+05 1.012034e+05 1.012902e+05 1.012902e+05 1.012902e+05 1.009066e+05 1.009066e+05 1.009066e+05 1.007958e+05 1.009315e+05 1.009315e+05 1.008238e+05 1.003828e+05 1.003828e+05 1.012884e+05 1.009427e+05 1.009427e+05 1.009427e+05 1.012183e+05 1.012183e+05 1.012183e+05 1.009392e+05 1.009392e+05 1.009392e+05 1.011091e+05 1.011091e+05 1.011091e+05 1.010243e+05 1.010243e+05 1.010663e+05 1.010663e+05 1.011875e+05 1.011875e+05 1.011690e+05 1.011690e+05 1.011690e+05 1.009019e+05 1.009019e+05 1.008229e+05 1.008229e+05 1.011972e+05 1.012042e+05 1.012042e+05 1.010186e+05 1.010186e+05 1.010654e+05 1.012236e+05 1.012236e+05 1.012236e+05 1.011081e+05 1.011081e+05 1.011808e+05 1.011808e+05 1.010765e+05 1.014115e+05 1.014115e+05 1.014115e+05 1.021797e+05 1.021797e+05 1.021797e+05 1.012347e+05 1.012347e+05 1.012520e+05 1.012520e+05 1.012520e+05 1.012141e+05 1.012689e+05 1.012689e+05 1.012282e+05 1.017103e+05 9.574014e+04 1.007372e+05 9.557150e+04 9.848134e+04 1.022434e+05 1.013024e+05 1.013024e+05 1.013024e+05 1.011535e+05 1.011535e+05 1.009676e+05 1.009845e+05 1.013077e+05 1.010951e+05 1.019917e+05 1.005135e+05 1.012572e+05 1.012572e+05 1.012354e+05 1.012354e+05 1.012354e+05 1.012357e+05 1.011147e+05 1.009597e+05 1.009597e+05 1.010021e+05 1.010021e+05 1.010021e+05 1.010051e+05 1.001344e+05 1.000027e+05 9.489565e+04 9.515722e+04 9.515722e+04 9.322603e+04 9.746270e+04 9.746270e+04 1.006519e+05 1.007716e+05 1.012608e+05 1.012608e+05 1.012608e+05 1.012828e+05 1.012828e+05 9.363019e+04 9.363019e+04 9.628513e+04 9.482962e+04 9.381905e+04 9.384179e+04 9.430385e+04 9.430385e+04 9.430385e+04 9.686128e+04 9.491150e+04 9.534697e+04 9.818595e+04 9.706976e+04 9.641155e+04 9.641155e+04 9.641155e+04 9.621739e+04 9.621739e+04 9.364847e+04 9.399333e+04 9.543304e+04 9.346022e+04 9.678507e+04 9.476588e+04 9.451565e+04 9.451565e+04 9.413044e+04 9.590106e+04 9.590106e+04 9.566537e+04 9.450306e+04 9.591293e+04 9.720225e+04 9.726999e+04 9.754015e+04 9.561899e+04 9.561899e+04 9.561899e+04 9.506564e+04 9.506564e+04 9.657834e+04 9.663381e+04 9.521750e+04 9.496568e+04 9.602885e+04 9.420655e+04 9.466602e+04 9.909514e+04 9.668424e+04 9.509477e+04 9.716351e+04 9.568870e+04 9.611941e+04 9.807428e+04 9.801462e+04 9.857486e+04 9.588499e+04 9.437751e+04 9.988471e+04 9.988471e+04 9.500944e+04 9.864444e+04 9.864444e+04 9.696887e+04 9.696887e+04 9.856190e+04 1.000314e+05 9.968744e+04 9.968744e+04 9.968744e+04 9.601662e+04 9.615722e+04 9.615722e+04 9.994070e+04 1.002528e+05 9.708390e+04 9.957811e+04 9.954785e+04 9.954785e+04 9.871007e+04 9.792993e+04 9.817126e+04 9.817126e+04 9.887309e+04 9.881691e+04 9.898050e+04 9.958089e+04 9.957639e+04 1.004333e+05 1.004333e+05 9.790367e+04 9.687432e+04 9.873020e+04 9.873020e+04 9.873020e+04 9.923824e+04 9.961388e+04 9.724158e+04 9.862780e+04 1.001250e+05 1.001250e+05 1.001250e+05 9.828882e+04 9.828882e+04 9.979145e+04 9.917616e+04 1.004970e+05 9.900257e+04 1.003641e+05 1.005976e+05 1.005976e+05 1.001808e+05 1.000492e+05 9.928117e+04 9.975816e+04 9.978897e+04 9.946561e+04 1.005202e+05 1.005202e+05 1.005202e+05 1.002344e+05 9.882686e+04 9.932387e+04 1.005575e+05 9.838889e+04 9.903846e+04 9.903846e+04 1.006943e+05 1.006641e+05 1.011209e+05 1.011209e+05 9.915663e+04 1.009309e+05 1.009309e+05 1.008964e+05 1.005940e+05 1.005940e+05 1.008810e+05 1.008810e+05 9.965182e+04 1.007244e+05 1.009432e+05 1.009738e+05 1.009738e+05 9.945827e+04 1.003500e+05 1.003500e+05 1.006479e+05 1.006479e+05 1.006479e+05 9.989683e+04 9.989683e+04 1.001911e+05 1.008357e+05 1.008357e+05 1.011021e+05 1.010657e+05 1.009325e+05 1.003461e+05 1.007452e+05 1.003979e+05 1.004737e+05 1.006174e+05 1.005898e+05 1.009914e+05 1.011671e+05 1.011671e+05 1.011671e+05 1.009707e+05 1.010237e+05 1.010705e+05 1.010705e+05 1.010705e+05 1.008391e+05 1.007111e+05 1.007111e+05 1.007111e+05 1.011484e+05 1.001803e+05 1.011748e+05 1.011748e+05 1.010062e+05 1.003941e+05 9.988140e+04 1.003084e+05 1.007210e+05 1.012786e+05 1.012786e+05 1.008110e+05 1.005155e+05 1.010867e+05 1.002609e+05 1.008878e+05 1.008878e+05 1.008878e+05 1.011377e+05 1.011065e+05 1.011065e+05 1.011065e+05 1.011970e+05 1.011970e+05 1.011530e+05 1.007819e+05 1.012427e+05 1.012401e+05 1.010433e+05 1.010882e+05 1.010882e+05 1.012291e+05 1.012291e+05 1.004494e+05 1.011215e+05 1.012094e+05 1.012094e+05 1.011608e+05 1.011608e+05 9.985213e+04 1.010555e+05 1.009083e+05 1.012558e+05 1.012558e+05 1.012471e+05 1.012471e+05 1.012471e+05 1.012581e+05 1.012334e+05 1.012334e+05 1.010147e+05 1.008213e+05 1.008734e+05 1.011330e+05 1.011423e+05 1.011423e+05 1.012533e+05 1.010883e+05 1.011853e+05 1.011319e+05 1.011569e+05 1.011569e+05 1.011049e+05 1.010714e+05 1.012022e+05 1.012022e+05 1.012385e+05 1.012385e+05 1.011684e+05 1.011684e+05 1.013088e+05 1.012744e+05 1.013035e+05 1.012895e+05 1.007838e+05 1.007838e+05 1.012096e+05 1.012644e+05 1.012644e+05 1.012674e+05 1.012674e+05 1.012935e+05 1.012935e+05 1.012443e+05 1.008851e+05 1.008577e+05 1.011967e+05 1.011355e+05 1.012655e+05 1.011863e+05 1.011799e+05 1.012706e+05 1.012706e+05 1.006240e+05 1.012228e+05 1.012228e+05 1.012228e+05 1.012256e+05 1.013014e+05 1.012951e+05 1.011256e+05 1.008982e+05 1.011690e+05 1.011640e+05 1.012541e+05 1.012982e+05 1.010531e+05 1.013034e+05 1.012756e+05 1.011803e+05 1.012607e+05 1.012073e+05 1.012833e+05 1.012610e+05 1.012518e+05 1.012476e+05 1.012550e+05 1.011302e+05 1.011742e+05 1.012266e+05 1.012137e+05 1.012137e+05 1.012506e+05 1.012506e+05 1.012786e+05 1.012786e+05 1.012309e+05 1.012698e+05 1.012637e+05 1.013250e+05 1.013250e+05 1.013250e+05 1.013250e+05 1.013105e+05 1.012876e+05 1.012693e+05 1.012895e+05 1.014245e+05 1.021582e+05 1.036877e+05 1.012818e+05 1.012818e+05 1.012818e+05 1.012482e+05 1.014170e+05 1.011354e+05 1.011689e+05 1.012562e+05 1.012562e+05 1.012562e+05 1.012543e+05 1.010726e+05 1.010726e+05 1.010726e+05 1.010812e+05 1.022985e+05 1.022985e+05 1.022985e+05 1.022605e+05 1.022605e+05 1.012846e+05 1.012846e+05 1.012846e+05 1.012942e+05 1.012942e+05 1.019033e+05 1.012786e+05 1.012786e+05 1.012880e+05 1.012685e+05 1.012685e+05 1.012698e+05 1.010687e+05 1.013011e+05 1.013011e+05 1.013011e+05 1.013135e+05 1.013135e+05 1.013135e+05 1.013160e+05 1.012895e+05 1.012931e+05 1.012931e+05 1.012931e+05 1.021935e+05 1.025623e+05 1.021935e+05 1.021935e+05 1.012954e+05 1.012991e+05 1.034823e+05 1.039195e+05 1.034823e+05 1.034823e+05 1.012074e+05 1.012051e+05 1.012051e+05 1.012051e+05 1.012127e+05 1.013138e+05 1.013138e+05 1.013105e+05 1.048325e+05 1.012910e+05 1.012910e+05 1.013042e+05 1.011875e+05 1.011875e+05 1.030256e+05 9.777621e+04 9.777621e+04 9.777621e+04 9.783096e+04 1.001801e+05 1.001801e+05 1.001801e+05 1.002269e+05 1.002269e+05 1.010793e+05 1.010793e+05 1.010793e+05 1.010539e+05 1.010539e+05 9.951980e+04 9.951980e+04 9.951980e+04 9.941055e+04 1.010098e+05 1.010098e+05 1.010098e+05 1.010204e+05 1.002365e+05 1.002365e+05 1.002365e+05 1.002597e+05 1.002764e+05 1.002814e+05 9.864472e+04 9.864472e+04 9.864472e+04 9.859921e+04 9.860166e+04 9.954321e+04 9.954321e+04 9.982639e+04 9.982639e+04 9.982639e+04 9.836152e+04 9.836152e+04 9.836152e+04 9.769521e+04 9.769521e+04 9.769521e+04 1.009515e+05 1.009515e+05 1.008468e+05 1.008468e+05 1.011427e+05 1.011427e+05 1.011427e+05 1.011373e+05 9.571872e+04 9.571872e+04 9.571872e+04 1.003688e+05 1.003688e+05 1.003688e+05 9.790162e+04 9.790162e+04 9.790162e+04 9.975186e+04 9.975186e+04 9.975186e+04 9.706551e+04 9.706551e+04 9.706551e+04 9.675447e+04 9.675447e+04 9.554501e+04 9.554501e+04 9.461588e+04 9.461588e+04 9.461588e+04 9.744909e+04 9.744909e+04 9.744909e+04 9.902033e+04 9.902033e+04 9.902033e+04 9.847682e+04 9.740993e+04 1.009888e+05 1.009888e+05 1.009888e+05 1.005569e+05 1.005569e+05 1.005569e+05 9.994832e+04 9.994832e+04 1.018210e+05 1.018210e+05 1.016514e+05 1.005481e+05 1.005481e+05 1.005481e+05 1.004815e+05 1.004815e+05 1.004815e+05 9.827769e+04 9.856346e+04 9.966953e+04 9.966953e+04 9.966953e+04 1.009123e+05 1.009123e+05 1.009123e+05 9.978473e+04 9.693681e+04 9.748108e+04 9.748108e+04 9.748108e+04 9.469398e+04 9.469398e+04 9.469398e+04 9.813595e+04 9.813595e+04 9.851399e+04 9.851399e+04 9.950956e+04 9.989727e+04 9.989727e+04 1.009903e+05 1.009903e+05 1.009903e+05 1.009137e+05 1.010642e+05 1.010642e+05 1.012696e+05 1.012696e+05 1.012696e+05 9.396510e+04 9.623022e+04 9.623022e+04 9.623022e+04 9.478696e+04 9.478696e+04 9.454105e+04 9.897640e+04 9.897640e+04 9.501290e+04 9.501290e+04 9.798046e+04 9.798046e+04 9.798046e+04 9.439955e+04 9.530839e+04 9.530839e+04 9.530839e+04 9.684211e+04 9.684211e+04 9.684211e+04 9.557146e+04 9.557146e+04 9.739988e+04 9.739988e+04 9.739988e+04 9.754197e+04 9.593708e+04 9.593708e+04 9.593708e+04 9.692127e+04 9.692127e+04 9.692127e+04 9.410294e+04 9.410294e+04 9.410294e+04 9.444190e+04 9.444190e+04 9.447518e+04 9.623227e+04 9.623227e+04 9.623887e+04 9.623887e+04 9.516619e+04 9.516619e+04 9.658443e+04 9.447518e+04 9.447518e+04 9.884748e+04 9.884748e+04 9.884748e+04 9.567452e+04 9.483036e+04 9.477271e+04 9.722356e+04 9.722356e+04 9.905134e+04 9.905134e+04 9.905134e+04 9.877680e+04 9.838554e+04 1.006311e+05 1.006311e+05 1.006311e+05 9.493003e+04 9.955659e+04 9.955659e+04 9.955659e+04 9.789858e+04 9.789858e+04 9.789858e+04 9.586006e+04 1.007233e+05 1.007233e+05 1.007233e+05 9.909839e+04 9.862682e+04 9.862682e+04 9.862682e+04 9.884435e+04 9.524288e+04 9.472976e+04 1.008190e+05 1.008190e+05 1.008190e+05 9.642240e+04 9.642240e+04 9.532528e+04 9.532528e+04 9.585201e+04 9.617088e+04 9.982456e+04 9.655086e+04 9.805334e+04 9.805334e+04 1.000078e+05 1.000078e+05 1.000078e+05 1.008999e+05 1.008999e+05 1.008999e+05 9.940691e+04 9.940691e+04 9.940691e+04 1.008229e+05 1.008229e+05 9.790553e+04 9.790553e+04 9.824869e+04 9.824869e+04 9.914175e+04 9.914175e+04 9.914175e+04 9.680099e+04 9.680099e+04 9.564660e+04 9.564660e+04 9.900900e+04 9.900900e+04 9.593342e+04 9.593342e+04 9.593342e+04 9.756176e+04 1.008797e+05 1.008797e+05 9.960377e+04 9.934126e+04 9.934126e+04 9.934126e+04 9.631571e+04 9.729805e+04 1.000079e+05 1.000079e+05 1.000079e+05 1.001181e+05 1.001181e+05 9.888161e+04 9.888161e+04 9.888161e+04 9.644664e+04 1.003688e+05 1.003688e+05 1.003688e+05 9.876584e+04 9.920258e+04 1.001827e+05 1.005499e+05 1.005499e+05 1.006277e+05 1.006277e+05 9.932152e+04 1.000499e+05 1.000499e+05 1.000499e+05 9.959148e+04 9.790111e+04 9.790111e+04 1.001618e+05 1.001618e+05 1.003397e+05 1.003397e+05 1.010362e+05 1.010362e+05 9.906347e+04 9.740993e+04 1.004858e+05 1.004858e+05 1.004858e+05 9.813277e+04 9.836815e+04 1.011293e+05 1.011293e+05 1.011293e+05 1.000169e+05 9.901801e+04 9.901801e+04 9.875910e+04 1.011938e+05 1.011938e+05 1.011938e+05 1.002210e+05 9.862558e+04 9.895576e+04 1.011409e+05 1.011409e+05 1.007768e+05 1.007768e+05 1.007768e+05 1.008326e+05 1.008326e+05 1.008326e+05 9.928424e+04 9.971924e+04 1.012004e+05 1.012004e+05 1.012004e+05 1.005748e+05 1.005748e+05 1.005748e+05 1.005549e+05 1.011868e+05 1.011868e+05 1.011868e+05 1.001605e+05 1.013659e+05 1.006024e+05 1.008844e+05 1.008844e+05 1.000013e+05 1.000558e+05 1.001962e+05 1.012225e+05 1.012225e+05 1.012225e+05 1.011479e+05 1.012801e+05 1.012801e+05 1.012801e+05 1.009311e+05 1.007265e+05 1.007265e+05 1.006953e+05 1.007169e+05 1.013226e+05 1.013226e+05 1.002761e+05 1.002761e+05 1.011586e+05 1.011098e+05 1.011098e+05 1.011322e+05 1.007360e+05 1.007360e+05 1.005864e+05 1.004899e+05 1.012552e+05 1.012552e+05 1.014345e+05 1.012034e+05 1.012034e+05 1.009061e+05 1.013091e+05 1.011156e+05 1.011156e+05 1.011597e+05 1.011814e+05 1.011814e+05 1.011814e+05 1.010691e+05 1.029317e+05 1.029317e+05 1.010797e+05 1.010797e+05 1.013007e+05 1.012243e+05 1.012760e+05 1.012760e+05 1.012157e+05 1.012307e+05 1.012307e+05 1.009359e+05 1.001278e+05 1.005008e+05 1.005320e+05 1.005320e+05 1.012411e+05 1.006885e+05 1.004899e+05 1.004899e+05 9.396510e+04 9.396510e+04 1.009159e+05 9.974244e+04 1.011526e+05 1.011526e+05 1.008732e+05 1.006191e+05 1.002504e+05 1.002504e+05 9.854478e+04 9.964686e+04 9.617786e+04 1.007955e+05 1.012528e+05 1.012778e+05 1.012778e+05 1.012853e+05 9.395785e+04 9.395785e+04 9.429008e+04 9.452312e+04 9.452312e+04 9.321998e+04 9.331115e+04 9.321998e+04 9.410883e+04 9.627692e+04 9.342188e+04 9.374697e+04 9.374697e+04 9.374697e+04 9.501011e+04 9.535163e+04 9.535163e+04 9.535163e+04 9.526041e+04 9.526041e+04 9.353400e+04 9.650251e+04 9.650251e+04 9.566277e+04 9.581882e+04 9.486825e+04 9.486825e+04 9.597645e+04 9.805109e+04 9.662928e+04 9.588435e+04 9.699986e+04 9.365958e+04 9.365958e+04 9.557744e+04 9.342424e+04 9.603456e+04 9.443038e+04 9.410784e+04 9.735062e+04 9.735062e+04 9.814497e+04 9.724414e+04 9.819800e+04 9.652236e+04 9.560675e+04 9.520101e+04 9.705955e+04 9.755932e+04 9.755932e+04 9.755932e+04 9.759181e+04 9.607763e+04 9.625093e+04 9.569663e+04 9.569663e+04 9.677802e+04 9.932510e+04 9.932510e+04 9.676776e+04 9.538038e+04 9.697028e+04 9.757626e+04 9.880760e+04 9.880760e+04 9.654862e+04 9.654862e+04 9.654862e+04 9.828416e+04 9.828416e+04 9.633827e+04 9.832893e+04 9.766171e+04 9.921379e+04 9.921379e+04 9.921379e+04 9.684678e+04 9.913388e+04 9.913388e+04 9.812911e+04 9.770385e+04 1.001140e+05 1.001140e+05 9.843403e+04 9.859261e+04 9.859261e+04 1.000407e+05 9.872343e+04 9.593373e+04 9.816380e+04 9.899943e+04 9.853901e+04 9.853901e+04 9.984341e+04 9.984341e+04 9.984341e+04 9.716826e+04 9.964966e+04 9.947141e+04 9.710271e+04 9.735805e+04 9.858756e+04 9.868121e+04 9.939584e+04 9.955689e+04 9.955689e+04 9.818518e+04 9.818518e+04 9.787489e+04 9.784671e+04 9.654463e+04 9.840157e+04 9.889135e+04 9.737339e+04 9.797409e+04 9.992099e+04 9.970033e+04 9.970033e+04 9.970033e+04 1.003008e+05 9.780357e+04 9.935061e+04 9.935061e+04 1.004090e+05 9.980813e+04 1.006046e+05 1.006046e+05 1.003880e+05 9.990825e+04 1.000207e+05 1.000207e+05 1.007159e+05 1.005128e+05 1.005128e+05 1.001051e+05 9.980855e+04 1.004519e+05 1.005967e+05 9.952524e+04 9.916740e+04 9.928871e+04 9.995901e+04 9.915939e+04 1.007422e+05 1.005765e+05 1.004859e+05 1.005450e+05 1.004238e+05 9.972816e+04 1.009097e+05 1.009097e+05 1.009295e+05 1.009256e+05 9.873043e+04 1.006440e+05 1.006440e+05 1.009451e+05 1.009451e+05 1.009525e+05 9.988311e+04 1.010729e+05 1.000465e+05 1.006688e+05 1.007947e+05 9.997520e+04 1.008431e+05 9.949359e+04 1.007053e+05 1.007053e+05 1.009857e+05 1.003911e+05 1.011823e+05 1.011823e+05 1.011502e+05 1.009988e+05 1.004320e+05 9.929667e+04 1.011374e+05 1.002480e+05 1.010608e+05 1.010608e+05 1.010732e+05 1.010512e+05 1.009490e+05 1.011134e+05 1.011179e+05 1.005614e+05 1.011269e+05 1.008707e+05 1.008707e+05 1.007898e+05 1.011598e+05 1.011684e+05 9.825963e+04 1.012078e+05 1.010215e+05 1.012263e+05 1.007261e+05 1.012566e+05 1.012566e+05 1.010876e+05 1.011426e+05 1.006092e+05 1.006092e+05 1.012462e+05 1.012462e+05 1.012462e+05 1.008297e+05 1.011835e+05 1.009814e+05 9.955755e+04 1.010819e+05 1.012007e+05 9.938738e+04 1.012180e+05 1.012180e+05 1.011668e+05 1.003373e+05 1.011806e+05 1.011073e+05 1.011978e+05 1.011151e+05 1.011988e+05 1.012104e+05 1.012104e+05 1.009576e+05 1.009509e+05 1.012580e+05 1.011427e+05 1.009925e+05 1.009925e+05 1.009925e+05 1.010898e+05 1.012603e+05 1.012290e+05 1.012367e+05 1.012367e+05 1.012367e+05 1.012670e+05 1.011018e+05 1.011018e+05 1.012486e+05 1.012543e+05 1.012101e+05 1.012395e+05 1.012194e+05 1.012777e+05 1.013100e+05 1.012621e+05 1.012590e+05 1.010113e+05 1.012692e+05 1.012836e+05 1.010569e+05 1.011737e+05 1.011737e+05 1.012248e+05 1.012248e+05 1.012355e+05 1.012138e+05 1.012531e+05 1.011555e+05 1.012103e+05 1.012372e+05 1.012414e+05 1.013019e+05 1.003269e+05 1.012637e+05 1.012474e+05 1.012350e+05 1.012370e+05 1.012708e+05 1.012064e+05 1.012357e+05 1.012273e+05 1.006655e+05 1.012834e+05 1.013181e+05 1.012403e+05 1.012403e+05 1.012685e+05 1.012685e+05 1.008239e+05 1.008239e+05 1.012851e+05 1.012390e+05 1.012211e+05 1.012882e+05 1.012196e+05 1.011256e+05 1.010566e+05 1.012937e+05 1.012420e+05 1.012693e+05 1.012704e+05 1.012623e+05 1.013142e+05 1.013197e+05 1.013146e+05 9.321998e+04 9.332058e+04 9.351955e+04 9.389536e+04 9.395785e+04 9.429008e+04 9.429008e+04 9.446164e+04 9.471382e+04 9.501011e+04 9.501011e+04 9.526041e+04 9.533663e+04 9.566277e+04 9.566277e+04 9.581882e+04 9.597645e+04 9.617786e+04 9.643279e+04 9.650251e+04 9.657484e+04 9.687077e+04 9.699986e+04 9.699986e+04 9.724414e+04 9.735062e+04 9.739711e+04 9.751901e+04 9.777004e+04 9.783096e+04 9.794126e+04 9.805109e+04 9.814497e+04 9.822787e+04 9.832893e+04 9.843403e+04 9.859261e+04 9.872343e+04 9.880760e+04 9.889319e+04 9.897640e+04 9.901017e+04 9.913730e+04 9.925962e+04 9.932510e+04 9.935224e+04 9.947141e+04 9.954321e+04 9.957860e+04 9.964966e+04 9.971761e+04 9.979975e+04 9.992099e+04 9.992099e+04 1.000407e+05 1.000407e+05 1.001140e+05 1.002097e+05 1.002323e+05 1.002731e+05 1.003643e+05 1.004090e+05 1.004090e+05 1.004519e+05 1.005128e+05 1.005356e+05 1.006046e+05 1.006541e+05 1.006541e+05 1.007159e+05 1.007258e+05 1.007558e+05 1.007955e+05 1.008431e+05 1.008431e+05 1.008737e+05 1.009097e+05 1.009295e+05 1.009494e+05 1.009857e+05 1.010038e+05 1.010038e+05 1.010263e+05 1.010512e+05 1.010732e+05 1.010732e+05 1.010876e+05 1.011134e+05 1.011134e+05 1.011374e+05 1.011502e+05 1.011502e+05 1.011598e+05 1.011684e+05 1.011823e+05 1.011855e+05 1.012007e+05 1.012078e+05 1.012078e+05 1.012180e+05 1.012263e+05 1.012263e+05 1.012320e+05 1.012395e+05 1.012434e+05 1.012528e+05 1.012528e+05 1.012605e+05 1.012670e+05 1.012670e+05 1.012760e+05 1.012778e+05 1.012853e+05 1.012895e+05 1.012895e+05 1.012984e+05 1.013019e+05 1.013035e+05 1.013100e+05 1.013125e+05 1.013181e+05 1.013250e+05 1.013250e+05 1.013250e+05 1.013250e+05 1.013250e+05 1.013111e+05 1.012846e+05 1.012698e+05 1.012900e+05 1.017318e+05 1.027312e+05 1.027312e+05 1.027312e+05 1.006266e+05 1.006266e+05 1.006266e+05 1.006964e+05 1.006964e+05 1.013098e+05 1.013098e+05 9.993409e+04 9.993409e+04 9.993409e+04 1.003383e+05 1.003383e+05 1.010389e+05 1.010389e+05 1.010389e+05 1.012814e+05 1.017318e+05 1.017318e+05 1.015819e+05 1.012763e+05 1.012763e+05 1.012763e+05 1.012812e+05 1.012812e+05 1.012721e+05 1.012883e+05 1.012883e+05 1.012806e+05 1.013111e+05 1.012946e+05 1.012922e+05 1.013129e+05 1.013129e+05 1.013171e+05 1.013171e+05 1.013194e+05 1.013214e+05 1.000769e+05 1.000769e+05 1.000769e+05 9.989639e+04 9.989639e+04 9.971792e+04 9.766051e+04 9.766051e+04 9.766051e+04 9.764475e+04 9.768701e+04 1.004492e+05 9.931992e+04 9.931992e+04 9.939723e+04 9.778803e+04 9.778803e+04 9.783400e+04 9.932147e+04 9.932147e+04 9.932147e+04 9.302682e+04 9.302682e+04 9.302682e+04 9.383598e+04 9.383598e+04 9.383598e+04 1.006079e+05 1.006079e+05 1.006079e+05 9.630702e+04 9.630702e+04 9.630702e+04 9.867505e+04 9.867505e+04 9.867505e+04 9.871495e+04 9.585263e+04 9.585263e+04 9.762791e+04 9.762791e+04 9.762791e+04 9.326847e+04 9.350697e+04 9.750618e+04 9.750618e+04 1.000955e+05 1.000955e+05 1.000955e+05 1.002832e+05 1.002832e+05 9.997248e+04 1.002210e+05 1.002210e+05 1.016437e+05 1.016437e+05 1.016437e+05 1.008224e+05 1.008224e+05 9.693741e+04 9.693741e+04 9.693741e+04 9.748095e+04 9.515486e+04 9.634547e+04 9.848902e+04 9.848902e+04 9.800313e+04 9.800313e+04 9.800313e+04 9.572265e+04 9.514719e+04 9.514719e+04 9.671976e+04 9.671976e+04 9.671976e+04 1.003929e+05 1.003929e+05 1.003929e+05 9.756854e+04 9.756854e+04 9.756854e+04 1.016945e+05 1.012273e+05 9.333801e+04 9.333801e+04 9.333801e+04 9.382598e+04 9.930828e+04 9.930828e+04 9.396855e+04 9.824259e+04 9.824259e+04 9.824259e+04 9.355470e+04 9.355470e+04 9.833597e+04 9.833597e+04 9.714392e+04 9.714392e+04 9.714392e+04 9.528810e+04 9.528810e+04 9.528810e+04 9.539500e+04 9.539500e+04 9.539500e+04 9.375290e+04 9.375290e+04 9.849065e+04 9.849065e+04 9.431072e+04 9.431072e+04 9.431072e+04 9.842795e+04 9.895827e+04 9.895827e+04 9.895827e+04 9.395159e+04 9.847776e+04 9.847776e+04 9.686043e+04 9.686043e+04 9.686043e+04 9.943670e+04 9.943670e+04 9.943670e+04 9.547591e+04 9.586192e+04 9.586192e+04 9.586192e+04 9.474324e+04 9.474324e+04 9.474324e+04 9.355301e+04 9.362597e+04 9.651017e+04 9.651017e+04 9.651017e+04 9.675056e+04 9.675056e+04 9.937655e+04 9.937655e+04 9.937655e+04 9.412079e+04 9.412079e+04 9.412079e+04 9.416518e+04 9.421906e+04 9.410152e+04 9.410152e+04 9.889214e+04 9.889214e+04 9.889214e+04 9.472431e+04 9.472431e+04 9.644129e+04 9.644129e+04 9.320888e+04 9.451486e+04 9.451486e+04 9.567658e+04 9.567658e+04 9.567658e+04 9.791148e+04 9.450815e+04 9.530462e+04 9.530462e+04 9.835010e+04 9.835010e+04 9.798031e+04 9.798031e+04 9.798031e+04 9.687378e+04 9.687378e+04 1.001651e+05 1.001651e+05 1.001651e+05 9.955067e+04 9.955067e+04 9.955067e+04 9.752497e+04 9.397498e+04 9.917324e+04 9.917324e+04 9.917324e+04 9.650228e+04 9.650228e+04 9.650228e+04 9.590031e+04 9.586858e+04 9.397498e+04 9.688265e+04 9.973289e+04 9.973289e+04 9.973289e+04 9.725946e+04 9.725946e+04 9.997099e+04 9.997099e+04 9.997099e+04 9.747859e+04 9.747859e+04 9.747859e+04 9.716652e+04 1.002831e+05 1.002831e+05 1.002831e+05 9.748738e+04 9.640182e+04 9.640182e+04 9.699062e+04 9.889785e+04 9.889785e+04 9.715746e+04 9.783689e+04 9.783689e+04 9.800779e+04 9.800779e+04 9.771970e+04 9.682617e+04 9.948700e+04 9.948700e+04 9.948700e+04 9.810706e+04 1.002661e+05 1.002661e+05 9.526979e+04 9.820266e+04 9.820266e+04 9.821147e+04 1.007924e+05 1.007924e+05 1.007924e+05 1.000928e+05 1.000928e+05 9.844512e+04 9.844512e+04 9.864880e+04 9.864880e+04 9.730649e+04 9.990932e+04 9.990932e+04 9.990932e+04 9.923762e+04 9.923762e+04 9.923762e+04 9.634547e+04 9.993970e+04 9.993970e+04 9.921649e+04 9.916540e+04 9.569888e+04 9.713051e+04 9.772460e+04 9.772460e+04 1.004011e+05 1.004011e+05 1.004011e+05 9.869407e+04 1.009635e+05 1.009635e+05 1.009635e+05 9.911578e+04 9.911578e+04 9.878637e+04 9.762031e+04 1.007824e+05 1.007824e+05 1.007824e+05 1.004911e+05 1.004911e+05 1.004911e+05 1.006436e+05 1.006436e+05 1.003127e+05 1.003127e+05 1.001963e+05 1.001963e+05 1.000912e+05 9.815522e+04 9.815522e+04 9.878684e+04 9.878684e+04 9.953265e+04 9.953265e+04 9.807321e+04 1.009467e+05 1.010058e+05 1.010058e+05 1.010058e+05 9.941565e+04 1.005110e+05 1.005110e+05 9.969801e+04 9.969801e+04 1.001477e+05 9.833471e+04 9.945693e+04 1.000851e+05 1.000851e+05 1.002366e+05 1.002366e+05 9.917926e+04 1.010510e+05 1.010510e+05 1.010510e+05 1.011358e+05 1.011358e+05 1.011358e+05 9.973410e+04 9.973410e+04 9.973410e+04 9.948045e+04 9.948045e+04 1.012831e+05 1.012831e+05 1.012831e+05 1.010326e+05 1.010326e+05 1.010326e+05 1.004907e+05 1.010905e+05 1.010905e+05 1.010905e+05 1.005964e+05 1.005964e+05 9.979712e+04 1.010445e+05 1.010445e+05 1.012168e+05 1.012168e+05 1.012168e+05 9.992662e+04 9.992662e+04 1.003889e+05 1.003889e+05 1.007826e+05 1.007826e+05 1.007826e+05 1.011982e+05 1.011982e+05 1.011982e+05 1.007484e+05 1.012034e+05 1.012034e+05 1.012034e+05 1.012902e+05 1.012902e+05 1.012902e+05 1.009066e+05 1.009066e+05 1.009066e+05 1.007958e+05 1.009315e+05 1.009315e+05 1.008238e+05 1.003828e+05 1.003828e+05 1.012884e+05 1.009427e+05 1.009427e+05 1.009427e+05 1.012183e+05 1.012183e+05 1.012183e+05 1.009392e+05 1.009392e+05 1.009392e+05 1.011091e+05 1.011091e+05 1.