<?xml version="1.0"?>
 <VTKFile type="UnstructuredGrid" version="1.0" byte_order="LittleEndian" header_type="UInt64">
  <UnstructuredGrid>
    <FieldData>
     <DataArray type="Float64" Name="TimeValue" NumberOfTuples="1" format="ascii">
7e-05
     </DataArray>
    </FieldData>
   <Piece NumberOfPoints="3632" NumberOfCells="3379">
    <PointData>
     <DataArray type="Float64" Name="pointP" format="ascii">
1.445564e+05 1.445564e+05 1.444248e+05 1.442254e+05 1.441301e+05 1.440142e+05 1.438290e+05 1.436109e+05 1.434320e+05 1.432435e+05 1.430428e+05 1.428333e+05 1.426126e+05 1.423845e+05 1.421825e+05 1.418467e+05 1.416259e+05 1.414178e+05 1.411244e+05 1.408352e+05 1.405784e+05 1.402699e+05 1.399592e+05 1.396322e+05 1.392917e+05 1.389032e+05 1.385689e+05 1.382524e+05 1.378983e+05 1.374746e+05 1.371421e+05 1.367301e+05 1.363514e+05 1.358886e+05 1.354061e+05 1.350745e+05 1.346605e+05 1.342253e+05 1.337068e+05 1.332985e+05 1.328445e+05 1.323667e+05 1.319322e+05 1.314001e+05 1.308868e+05 1.304282e+05 1.299778e+05 1.294914e+05 1.288306e+05 1.283513e+05 1.278314e+05 1.272898e+05 1.267508e+05 1.262394e+05 1.256142e+05 1.251174e+05 1.245673e+05 1.240375e+05 1.234736e+05 1.229047e+05 1.223510e+05 1.217857e+05 1.211541e+05 1.205991e+05 1.200283e+05 1.194109e+05 1.187231e+05 1.181643e+05 1.175867e+05 1.170093e+05 1.163486e+05 1.157508e+05 1.151452e+05 1.145436e+05 1.138720e+05 1.132812e+05 1.126142e+05 1.119791e+05 1.113281e+05 1.107609e+05 1.100322e+05 1.093688e+05 1.087211e+05 1.080512e+05 1.074516e+05 1.068302e+05 1.062067e+05 1.055780e+05 1.048720e+05 1.042101e+05 1.035727e+05 1.029302e+05 1.023619e+05 1.016923e+05 1.010434e+05 1.004588e+05 9.978430e+04 9.915519e+04 9.854841e+04 9.779134e+04 9.719172e+04 9.657707e+04 9.601868e+04 9.530227e+04 9.469759e+04 9.409691e+04 9.349271e+04 9.284751e+04 9.224398e+04 9.166778e+04 9.109242e+04 9.050355e+04 8.992385e+04 8.924011e+04 8.864729e+04 8.798355e+04 8.739619e+04 8.685803e+04 8.626439e+04 8.568247e+04 8.514951e+04 8.459838e+04 8.402511e+04 8.347090e+04 8.293698e+04 8.235307e+04 8.187569e+04 8.130581e+04 8.075495e+04 8.027122e+04 7.979574e+04 7.916078e+04 7.870879e+04 7.823871e+04 7.782659e+04 7.728331e+04 7.680587e+04 7.640936e+04 7.587166e+04 7.548199e+04 7.507484e+04 7.454098e+04 7.414872e+04 7.371812e+04 7.326924e+04 7.289381e+04 7.250607e+04 7.208950e+04 7.168327e+04 7.137911e+04 7.104111e+04 7.061085e+04 7.025281e+04 6.992763e+04 6.956398e+04 6.926074e+04 6.899029e+04 6.856777e+04 6.829431e+04 6.799870e+04 6.774094e+04 6.742523e+04 6.718479e+04 6.691056e+04 6.665743e+04 6.645174e+04 6.624914e+04 6.606464e+04 6.586114e+04 6.570201e+04 6.543528e+04 6.526096e+04 6.508850e+04 6.494340e+04 6.482763e+04 6.464885e+04 6.453430e+04 6.440802e+04 6.427157e+04 6.418234e+04 6.412346e+04 1.025352e+05 1.025352e+05 1.025352e+05 1.041762e+05 1.041762e+05 1.041762e+05 1.045637e+05 1.042399e+05 1.063343e+05 1.051958e+05 1.085932e+05 1.085932e+05 1.085932e+05 1.085479e+05 9.652636e+04 9.652636e+04 9.652636e+04 9.646687e+04 9.711586e+04 1.315668e+05 1.315668e+05 1.315668e+05 1.314701e+05 1.311335e+05 1.311335e+05 1.311335e+05 1.303312e+05 9.941002e+04 9.941002e+04 9.941002e+04 1.000577e+05 1.005967e+05 1.005761e+05 7.875767e+04 7.875767e+04 7.875767e+04 7.779156e+04 7.779156e+04 1.302593e+05 1.302593e+05 1.302593e+05 1.296964e+05 7.294194e+04 7.294194e+04 7.294194e+04 7.205698e+04 7.205698e+04 1.425612e+05 1.425612e+05 1.425612e+05 1.137198e+05 1.137198e+05 1.137198e+05 1.141043e+05 1.076381e+05 1.076381e+05 1.076381e+05 1.279153e+05 1.279153e+05 1.279153e+05 1.279472e+05 8.023405e+04 8.023405e+04 8.029327e+04 8.029327e+04 1.159733e+05 1.159733e+05 1.164521e+05 1.288676e+05 1.288676e+05 1.288676e+05 1.294780e+05 1.294780e+05 6.862731e+04 6.862731e+04 6.862731e+04 6.945680e+04 6.945680e+04 9.905141e+04 9.905141e+04 9.905141e+04 9.811414e+04 9.811414e+04 1.325387e+05 1.325387e+05 1.168139e+05 1.168139e+05 1.168139e+05 1.169594e+05 1.077637e+05 1.077637e+05 1.077637e+05 1.074982e+05 1.075544e+05 1.181643e+05 1.181643e+05 1.181643e+05 1.146818e+05 1.146818e+05 1.149233e+05 1.350745e+05 1.353168e+05 1.353168e+05 6.494340e+04 6.544706e+04 6.544706e+04 1.071206e+05 8.293698e+04 8.335579e+04 1.075812e+05 1.039499e+05 1.039499e+05 1.039499e+05 1.045704e+05 9.867119e+04 1.039159e+05 1.039159e+05 1.039159e+05 1.049764e+05 1.049764e+05 9.550039e+04 9.550039e+04 9.550039e+04 9.639430e+04 8.827351e+04 8.827351e+04 8.827351e+04 8.809761e+04 1.304472e+05 1.302232e+05 1.292581e+05 1.325061e+05 1.325061e+05 1.054715e+05 1.054715e+05 1.054715e+05 1.060616e+05 1.205448e+05 1.205448e+05 1.205448e+05 1.212706e+05 1.212706e+05 1.205948e+05 8.407832e+04 8.407832e+04 8.407832e+04 8.367030e+04 8.823512e+04 8.823512e+04 8.823512e+04 8.902642e+04 8.948386e+04 1.155668e+05 1.155668e+05 1.155668e+05 1.156325e+05 7.124889e+04 6.922665e+04 9.473658e+04 9.473658e+04 9.473658e+04 9.546717e+04 7.959449e+04 7.959449e+04 7.959449e+04 7.986963e+04 1.253843e+05 1.253843e+05 1.253843e+05 1.263054e+05 1.263054e+05 7.540456e+04 7.540456e+04 7.540456e+04 7.580247e+04 1.250769e+05 1.250769e+05 1.250769e+05 1.248115e+05 1.303681e+05 1.303681e+05 1.303681e+05 1.303435e+05 8.413650e+04 8.413650e+04 8.407723e+04 1.082575e+05 1.082575e+05 1.099396e+05 1.099396e+05 1.099396e+05 1.047353e+05 1.047353e+05 1.047353e+05 1.044520e+05 6.523707e+04 6.523707e+04 6.523707e+04 6.514511e+04 6.514511e+04 1.390905e+05 1.390905e+05 1.390905e+05 1.387076e+05 1.387076e+05 1.086888e+05 1.241679e+05 1.241679e+05 1.245710e+05 6.469202e+04 6.469202e+04 6.469202e+04 6.462988e+04 6.989649e+04 6.989649e+04 7.030328e+04 7.030328e+04 1.333519e+05 1.333519e+05 1.336550e+05 1.288176e+05 1.288176e+05 6.831742e+04 6.831742e+04 6.870733e+04 6.870733e+04 1.267229e+05 1.267229e+05 1.267229e+05 1.264517e+05 1.072744e+05 1.068972e+05 1.156069e+05 1.156069e+05 1.156069e+05 1.152187e+05 1.195692e+05 1.195692e+05 1.195692e+05 1.188576e+05 1.188576e+05 6.700712e+04 6.700712e+04 6.700712e+04 6.700761e+04 6.700761e+04 1.171586e+05 1.177846e+05 1.419753e+05 1.419753e+05 1.419753e+05 1.418788e+05 7.126688e+04 7.126688e+04 7.126688e+04 7.052840e+04 7.052840e+04 7.134199e+04 7.160981e+04 1.090986e+05 1.090986e+05 1.090986e+05 1.084490e+05 1.084490e+05 1.011561e+05 1.014229e+05 1.014229e+05 8.072136e+04 8.072136e+04 8.072136e+04 8.102959e+04 8.102959e+04 8.406599e+04 8.406599e+04 8.406599e+04 8.351575e+04 8.351575e+04 7.408626e+04 7.408626e+04 7.496222e+04 7.496222e+04 1.083288e+05 1.083288e+05 1.076803e+05 7.598560e+04 7.598560e+04 7.580810e+04 7.580810e+04 8.327221e+04 8.327221e+04 8.327221e+04 8.461052e+04 9.621950e+04 9.621950e+04 9.621950e+04 9.486133e+04 9.486133e+04 1.276346e+05 1.299825e+05 1.241646e+05 1.044863e+05 1.044863e+05 1.044863e+05 1.054105e+05 1.054105e+05 1.075597e+05 1.075597e+05 1.080240e+05 1.026471e+05 1.026471e+05 1.024985e+05 1.016052e+05 1.091886e+05 1.091886e+05 1.091886e+05 1.083350e+05 1.083350e+05 1.083350e+05 1.122184e+05 1.122184e+05 1.122184e+05 9.616074e+04 9.691317e+04 1.057396e+05 1.124627e+05 1.124627e+05 1.124627e+05 1.115313e+05 1.157836e+05 1.157836e+05 1.157836e+05 1.158356e+05 1.158356e+05 1.158356e+05 1.152695e+05 8.674638e+04 8.674638e+04 8.674638e+04 9.669381e+04 9.669381e+04 9.669381e+04 1.107791e+05 1.107791e+05 1.107791e+05 1.256436e+05 1.256436e+05 1.257609e+05 8.137749e+04 8.714110e+04 8.714110e+04 1.319067e+05 1.319067e+05 1.319067e+05 1.331370e+05 1.331370e+05 1.052879e+05 1.052879e+05 6.731501e+04 6.819098e+04 6.922665e+04 1.364864e+05 1.364864e+05 1.364864e+05 1.359417e+05 8.973428e+04 8.973428e+04 8.973428e+04 1.071324e+05 1.070502e+05 1.066056e+05 9.620542e+04 9.620542e+04 9.620542e+04 7.991533e+04 7.991533e+04 7.991533e+04 7.974692e+04 7.933601e+04 1.089885e+05 1.089885e+05 1.089885e+05 1.401420e+05 1.401420e+05 1.401420e+05 1.401129e+05 1.201330e+05 1.201330e+05 1.201330e+05 1.198608e+05 1.404807e+05 1.404807e+05 1.404807e+05 1.155665e+05 1.001328e+05 1.001328e+05 1.021122e+05 1.021122e+05 1.021122e+05 1.018917e+05 1.020568e+05 6.587241e+04 6.587241e+04 6.622118e+04 6.501527e+04 6.492546e+04 1.277239e+05 1.277239e+05 8.321123e+04 8.321123e+04 8.321123e+04 8.353976e+04 6.713483e+04 6.713483e+04 6.713483e+04 6.748386e+04 1.205991e+05 1.206094e+05 1.206094e+05 9.403039e+04 9.403039e+04 9.403039e+04 9.386222e+04 6.961639e+04 9.747804e+04 9.747804e+04 9.750741e+04 1.303762e+05 1.303762e+05 1.303762e+05 1.394239e+05 1.394239e+05 1.375772e+05 1.375772e+05 1.375772e+05 1.379775e+05 1.411644e+05 1.411644e+05 1.411644e+05 1.409125e+05 1.409125e+05 1.410764e+05 1.353190e+05 1.353190e+05 1.013877e+05 7.815869e+04 7.815869e+04 7.861952e+04 9.439759e+04 1.437601e+05 1.432112e+05 1.437601e+05 1.437601e+05 1.230609e+05 1.230609e+05 1.230609e+05 1.224006e+05 1.224006e+05 1.311790e+05 1.311790e+05 1.315376e+05 1.315376e+05 1.269145e+05 1.269145e+05 1.269145e+05 1.278622e+05 1.278622e+05 1.051325e+05 1.051325e+05 1.051325e+05 1.057084e+05 1.057084e+05 1.372864e+05 1.372864e+05 1.372864e+05 1.358951e+05 1.358951e+05 1.171141e+05 1.171141e+05 1.171141e+05 1.068944e+05 7.127427e+04 7.127427e+04 7.127427e+04 7.276892e+04 7.276892e+04 7.926383e+04 7.926383e+04 7.926383e+04 8.104753e+04 8.104753e+04 8.905076e+04 8.905076e+04 8.905076e+04 9.071792e+04 9.071792e+04 1.321545e+05 1.321545e+05 1.321545e+05 1.082789e+05 1.082789e+05 1.082789e+05 1.090655e+05 1.090655e+05 9.434527e+04 9.650049e+04 8.961376e+04 8.961376e+04 8.961376e+04 8.863487e+04 1.072482e+05 1.072482e+05 1.069280e+05 1.016848e+05 1.016848e+05 1.016521e+05 1.016521e+05 1.025386e+05 1.031995e+05 1.126843e+05 1.103262e+05 1.126843e+05 1.126843e+05 1.063343e+05 1.063343e+05 1.038127e+05 1.159206e+05 1.167491e+05 1.354343e+05 1.354343e+05 1.354343e+05 1.348793e+05 1.351877e+05 9.352649e+04 9.352649e+04 9.352649e+04 9.288542e+04 7.955730e+04 8.213284e+04 6.578801e+04 6.578801e+04 6.578801e+04 6.608704e+04 1.248875e+05 1.250389e+05 1.249982e+05 1.020415e+05 1.020415e+05 1.018422e+05 6.744792e+04 6.900689e+04 6.900689e+04 6.925664e+04 6.967352e+04 7.908001e+04 7.927864e+04 7.929263e+04 9.216562e+04 9.216562e+04 9.216562e+04 9.201063e+04 7.220111e+04 7.220111e+04 7.220111e+04 7.176662e+04 1.025507e+05 7.250607e+04 7.302355e+04 7.302355e+04 1.170876e+05 1.170876e+05 1.170876e+05 9.152108e+04 1.368086e+05 1.368086e+05 9.538809e+04 9.538809e+04 9.538809e+04 1.211951e+05 6.790674e+04 6.790674e+04 9.342134e+04 9.046049e+04 9.046049e+04 9.046049e+04 9.026961e+04 8.064165e+04 6.558513e+04 6.558513e+04 6.576302e+04 6.899029e+04 1.037581e+05 1.037581e+05 7.490440e+04 7.490440e+04 7.490440e+04 7.451302e+04 1.338613e+05 1.341210e+05 1.341210e+05 1.188229e+05 7.166714e+04 7.166714e+04 7.154423e+04 1.360640e+05 1.360640e+05 1.343075e+05 1.254217e+05 8.568247e+04 8.590764e+04 8.590764e+04 1.429776e+05 1.429776e+05 8.444521e+04 1.385557e+05 1.385557e+05 8.779716e+04 8.779716e+04 8.779716e+04 8.728265e+04 7.826815e+04 7.826815e+04 8.221159e+04 8.221159e+04 6.711749e+04 6.572314e+04 1.137084e+05 1.134710e+05 7.326924e+04 7.384897e+04 7.384897e+04 1.055780e+05 1.058743e+05 1.058743e+05 6.622404e+04 6.622404e+04 6.639805e+04 6.639805e+04 1.308080e+05 1.064772e+05 1.433109e+05 1.433109e+05 1.434157e+05 1.437550e+05 1.437550e+05 1.328445e+05 1.326517e+05 1.217703e+05 1.217703e+05 1.217703e+05 1.401361e+05 1.401361e+05 1.401361e+05 1.400028e+05 8.676784e+04 8.676784e+04 1.230625e+05 6.685973e+04 6.685973e+04 9.091442e+04 8.082589e+04 9.633972e+04 9.633972e+04 9.633972e+04 7.064433e+04 7.064433e+04 1.319322e+05 1.317611e+05 1.317611e+05 1.113281e+05 1.116008e+05 1.093688e+05 1.096330e+05 6.552000e+04 1.418945e+05 1.418945e+05 7.693113e+04 7.693113e+04 7.693113e+04 7.678011e+04 1.405516e+05 8.112357e+04 8.956284e+04 8.956284e+04 8.902386e+04 8.544404e+04 8.544404e+04 6.796847e+04 6.796847e+04 6.751949e+04 1.194109e+05 1.194903e+05 1.194903e+05 9.786428e+04 1.425611e+05 1.425611e+05 1.420824e+05 1.420824e+05 9.972156e+04 9.972156e+04 9.972156e+04 7.565441e+04 7.565441e+04 7.565441e+04 1.007901e+05 1.007901e+05 1.349507e+05 1.421337e+05 1.417191e+05 1.411476e+05 1.331502e+05 1.424495e+05 7.023831e+04 1.121855e+05 1.127998e+05 7.631077e+04 7.631077e+04 1.268080e+05 1.236697e+05 7.767411e+04 7.737239e+04 9.886140e+04 9.886140e+04 1.445564e+05 1.442830e+05 1.436768e+05 1.436768e+05 1.436768e+05 1.439695e+05 1.362335e+05 1.353718e+05 1.371694e+05 1.373572e+05 1.110393e+05 1.110393e+05 1.107897e+05 1.332759e+05 7.207530e+04 7.466243e+04 1.262046e+05 1.238833e+05 1.238833e+05 1.238833e+05 9.665232e+04 8.875124e+04 8.875124e+04 8.875124e+04 1.441199e+05 1.366487e+05 1.417263e+05 1.410633e+05 8.472660e+04 1.197209e+05 1.421984e+05 1.428945e+05 6.732844e+04 6.796227e+04 6.796227e+04 1.162311e+05 1.219557e+05 7.058090e+04 6.864676e+04 1.349636e+05 1.341129e+05 1.341129e+05 7.348965e+04 7.348965e+04 7.379093e+04 7.379093e+04 8.715326e+04 1.272498e+05 1.053616e+05 6.482970e+04 1.385000e+05 1.378687e+05 9.592014e+04 1.045956e+05 1.043921e+05 1.043921e+05 1.368542e+05 1.368542e+05 1.365548e+05 1.365548e+05 9.487373e+04 9.541799e+04 8.308609e+04 8.308609e+04 8.292792e+04 9.136931e+04 9.136931e+04 9.071210e+04 9.071210e+04 8.542502e+04 8.542502e+04 6.588758e+04 1.410211e+05 1.410211e+05 1.335686e+05 1.335686e+05 1.335686e+05 1.295535e+05 7.155606e+04 7.155606e+04 7.727373e+04 7.727373e+04 6.914745e+04 6.932654e+04 1.320416e+05 1.399070e+05 6.473045e+04 6.720638e+04 6.720638e+04 9.906362e+04 9.906362e+04 9.989344e+04 6.823856e+04 6.823856e+04 8.151619e+04 8.151619e+04 1.382479e+05 1.382479e+05 1.123854e+05 1.430092e+05 1.215588e+05 1.215588e+05 1.211655e+05 1.054905e+05 1.059632e+05 6.992726e+04 7.416201e+04 8.609497e+04 1.416466e+05 6.572047e+04 9.000411e+04 9.000411e+04 9.000411e+04 1.029827e+05 1.029827e+05 1.029827e+05 1.092427e+05 9.339672e+04 9.339672e+04 9.339672e+04 9.255092e+04 1.432014e+05 1.426966e+05 1.264964e+05 1.260665e+05 1.260665e+05 1.006723e+05 1.006723e+05 1.006723e+05 1.289300e+05 7.257876e+04 1.407898e+05 1.436422e+05 1.436422e+05 1.431766e+05 1.031152e+05 8.002092e+04 8.002092e+04 8.034972e+04 8.618963e+04 8.618963e+04 1.419697e+05 6.582821e+04 8.668603e+04 8.731481e+04 7.847408e+04 1.108921e+05 1.115374e+05 1.396489e+05 9.665611e+04 9.665611e+04 9.665611e+04 8.195098e+04 8.195098e+04 1.313484e+05 1.310036e+05 1.310036e+05 1.379203e+05 1.373068e+05 7.543717e+04 7.526345e+04 1.384876e+05 1.384876e+05 1.384876e+05 1.381980e+05 7.596363e+04 7.596363e+04 7.625999e+04 6.769952e+04 6.769952e+04 1.136983e+05 1.136983e+05 1.136983e+05 1.134460e+05 8.653566e+04 1.392468e+05 1.392468e+05 1.392468e+05 1.391173e+05 1.403243e+05 7.806776e+04 7.806776e+04 7.805514e+04 7.805514e+04 7.466462e+04 1.322401e+05 1.322401e+05 9.972850e+04 9.904628e+04 1.291914e+05 1.291914e+05 7.681408e+04 7.736815e+04 1.364608e+05 1.432112e+05 1.428697e+05 8.503245e+04 8.510001e+04 1.414169e+05 9.348091e+04 9.348091e+04 9.332959e+04 9.332959e+04 8.473588e+04 9.702374e+04 9.778036e+04 1.248548e+05 8.810324e+04 7.659465e+04 7.744546e+04 1.325992e+05 1.325992e+05 1.425997e+05 1.425997e+05 1.425997e+05 1.422097e+05 6.861312e+04 6.861312e+04 6.808856e+04 1.127823e+05 1.126931e+05 1.230450e+05 6.637251e+04 6.668274e+04 6.668274e+04 6.668274e+04 6.678087e+04 9.140883e+04 1.444248e+05 1.374536e+05 1.363382e+05 1.363382e+05 7.174112e+04 7.174112e+04 7.174112e+04 7.128868e+04 1.416290e+05 1.416290e+05 1.354865e+05 1.354865e+05 1.350384e+05 1.267371e+05 1.199886e+05 1.405578e+05 8.857792e+04 8.800215e+04 1.420931e+05 1.420940e+05 1.062336e+05 1.216561e+05 1.216561e+05 1.216561e+05 1.224200e+05 7.220543e+04 9.435190e+04 9.428843e+04 6.866697e+04 6.922882e+04 1.019269e+05 1.023741e+05 8.122338e+04 8.122338e+04 1.240203e+05 8.426383e+04 8.426383e+04 8.507553e+04 8.267889e+04 8.267889e+04 9.184969e+04 7.365882e+04 7.365882e+04 7.272935e+04 1.354205e+05 1.399928e+05 1.399928e+05 9.000779e+04 9.017600e+04 9.017600e+04 1.155661e+05 7.053167e+04 6.742284e+04 6.766914e+04 1.335450e+05 1.335450e+05 1.043383e+05 8.637831e+04 1.149413e+05 1.148037e+05 1.127539e+05 1.339519e+05 1.339519e+05 1.232459e+05 1.232459e+05 1.232459e+05 1.119910e+05 1.121054e+05 1.287175e+05 1.288948e+05 1.288948e+05 1.046677e+05 1.039851e+05 1.039851e+05 1.176150e+05 1.101964e+05 1.110694e+05 1.376865e+05 1.389785e+05 1.389785e+05 1.389785e+05 1.392365e+05 6.998291e+04 7.807438e+04 9.111038e+04 9.168814e+04 8.111739e+04 8.111739e+04 8.111739e+04 9.724854e+04 9.724854e+04 9.724854e+04 9.753915e+04 9.838960e+04 7.022272e+04 7.484990e+04 7.450700e+04 9.507806e+04 9.507806e+04 7.356447e+04 7.437512e+04 7.437243e+04 7.437243e+04 9.330063e+04 8.412903e+04 8.412903e+04 8.377617e+04 1.259149e+05 1.259149e+05 1.251405e+05 8.871698e+04 8.871698e+04 1.074865e+05 7.768261e+04 7.768261e+04 7.699668e+04 7.699668e+04 6.948400e+04 6.948400e+04 6.948400e+04 1.368782e+05 1.362224e+05 1.362224e+05 6.830031e+04 6.830031e+04 6.830031e+04 6.728520e+04 6.899796e+04 9.618695e+04 1.375515e+05 1.375515e+05 1.366055e+05 1.350327e+05 1.350327e+05 1.350327e+05 1.197754e+05 1.197754e+05 1.192866e+05 1.167836e+05 1.167836e+05 1.175158e+05 7.004180e+04 7.181720e+04 7.181720e+04 1.414434e+05 1.405635e+05 8.729235e+04 8.729235e+04 8.729235e+04 1.413839e+05 7.563878e+04 7.563878e+04 7.598751e+04 7.598751e+04 6.985536e+04 6.985536e+04 7.035803e+04 7.035803e+04 6.837602e+04 6.837602e+04 6.796601e+04 1.138687e+05 1.137090e+05 8.781852e+04 1.321605e+05 1.321605e+05 1.321605e+05 9.723298e+04 1.224148e+05 7.259648e+04 1.191753e+05 1.406413e+05 8.205542e+04 1.245393e+05 1.245393e+05 1.412389e+05 1.405177e+05 1.405177e+05 1.156589e+05 1.158651e+05 1.394467e+05 1.394467e+05 1.382550e+05 7.423665e+04 7.423665e+04 9.914415e+04 1.040534e+05 1.333287e+05 1.095671e+05 1.406122e+05 1.394752e+05 1.394752e+05 8.639088e+04 9.493121e+04 9.249194e+04 1.382660e+05 1.384998e+05 7.079931e+04 7.079931e+04 8.247184e+04 8.247184e+04 1.053749e+05 6.949325e+04 6.945055e+04 6.945055e+04 1.354869e+05 8.529914e+04 8.652330e+04 9.245808e+04 9.245808e+04 9.245808e+04 9.145811e+04 9.145811e+04 1.218406e+05 1.333725e+05 1.374864e+05 1.280213e+05 1.280213e+05 1.118896e+05 1.118896e+05 1.120976e+05 1.108402e+05 1.108402e+05 1.395558e+05 1.395558e+05 1.395558e+05 1.382989e+05 1.382989e+05 1.173663e+05 1.173663e+05 1.182117e+05 1.222423e+05 1.206535e+05 1.206535e+05 1.206535e+05 7.867747e+04 1.236938e+05 1.229930e+05 1.229930e+05 7.917467e+04 7.959845e+04 6.819098e+04 7.071207e+04 1.364226e+05 1.160499e+05 1.150490e+05 1.405635e+05 1.292006e+05 1.292006e+05 1.280294e+05 1.280294e+05 1.303294e+05 1.305553e+05 1.368221e+05 7.239643e+04 7.759121e+04 7.759121e+04 7.768983e+04 6.972036e+04 1.320123e+05 6.855481e+04 9.821527e+04 8.039324e+04 1.379197e+05 1.349203e+05 1.349203e+05 1.346529e+05 1.346529e+05 9.103472e+04 1.029667e+05 1.029667e+05 1.029667e+05 8.765565e+04 1.314499e+05 1.072443e+05 7.435316e+04 7.427940e+04 8.484720e+04 6.994189e+04 7.674812e+04 7.504814e+04 7.279443e+04 7.279443e+04 7.279443e+04 1.240010e+05 8.894538e+04 7.052257e+04 1.285543e+05 1.285543e+05 1.277352e+05 1.116501e+05 9.836408e+04 9.836408e+04 1.342659e+05 1.188662e+05 1.194709e+05 7.152777e+04 1.109092e+05 1.109092e+05 1.123536e+05 6.984210e+04 7.277715e+04 7.277715e+04 7.206162e+04 1.034959e+05 1.034959e+05 1.034959e+05 1.138062e+05 9.361676e+04 1.083584e+05 9.176199e+04 9.071289e+04 9.071289e+04 8.787398e+04 8.118548e+04 1.240681e+05 1.240681e+05 1.304660e+05 8.569003e+04 8.569003e+04 8.569003e+04 8.521822e+04 1.375179e+05 1.158856e+05 1.356053e+05 1.340246e+05 1.012357e+05 1.219283e+05 1.224223e+05 1.352620e+05 1.147586e+05 1.146999e+05 7.124889e+04 1.142680e+05 1.291423e+05 1.291423e+05 1.291423e+05 1.393452e+05 1.387483e+05 1.282991e+05 1.339295e+05 1.393452e+05 7.441935e+04 7.285336e+04 8.264858e+04 1.190956e+05 1.173302e+05 1.097215e+05 7.628098e+04 7.628098e+04 7.628098e+04 8.686494e+04 1.336896e+05 1.336896e+05 1.368557e+05 1.368557e+05 1.126589e+05 7.389665e+04 1.329265e+05 9.967125e+04 9.967125e+04 9.967125e+04 9.494089e+04 1.317374e+05 1.317374e+05 9.901692e+04 1.085241e+05 1.197171e+05 7.663618e+04 1.291962e+05 1.291962e+05 1.291962e+05 7.519755e+04 7.519755e+04 7.519755e+04 1.390327e+05 1.080863e+05 1.347345e+05 1.347345e+05 7.355329e+04 7.355329e+04 7.355329e+04 7.434939e+04 9.353966e+04 9.353966e+04 9.353966e+04 1.251637e+05 1.251637e+05 1.251637e+05 1.279956e+05 1.015613e+05 1.013119e+05 1.033197e+05 1.033197e+05 1.033197e+05 9.626943e+04 9.667569e+04 9.667569e+04 1.241213e+05 1.220552e+05 1.375501e+05 1.010108e+05 1.004541e+05 7.839872e+04 8.108000e+04 1.147707e+05 8.526263e+04 7.747622e+04 7.747622e+04 7.653299e+04 1.309733e+05 1.124876e+05 8.744987e+04 8.681991e+04 9.844036e+04 1.146007e+05 9.236017e+04 9.236017e+04 1.224568e+05 1.244729e+05 1.236650e+05 8.406071e+04 1.079123e+05 1.321725e+05 7.881715e+04 7.881715e+04 7.559124e+04 7.559124e+04 1.262850e+05 1.262850e+05 1.262850e+05 1.245082e+05 1.245082e+05 1.142657e+05 1.279856e+05 1.275582e+05 1.275582e+05 8.517130e+04 1.106638e+05 1.121351e+05 1.175371e+05 1.175371e+05 1.194167e+05 1.249660e+05 7.925322e+04 7.925322e+04 1.230488e+05 1.222889e+05 7.839872e+04 7.839872e+04 8.763227e+04 9.106533e+04 9.106533e+04 9.106533e+04 1.055224e+05 8.352420e+04 8.401152e+04 9.940224e+04 9.940224e+04 9.940224e+04 1.025950e+05 1.037998e+05 1.124911e+05 1.017667e+05 8.680198e+04 1.175735e+05 1.175735e+05 1.175735e+05 1.163799e+05 9.019305e+04 1.239350e+05 1.239350e+05 1.239350e+05 1.202234e+05 8.067809e+04 1.216711e+05 1.216711e+05 1.060288e+05 8.060770e+04 8.060770e+04 8.060770e+04 8.015714e+04 8.015714e+04 1.297742e+05 1.276417e+05 1.276417e+05 8.187795e+04 8.939840e+04 8.939840e+04 1.157584e+05 8.265081e+04 8.265081e+04 8.265081e+04 8.468555e+04 8.468555e+04 8.468555e+04 1.030647e+05 1.030647e+05 1.040632e+05 9.523513e+04 8.206537e+04 8.206537e+04 1.025022e+05 1.090762e+05 1.090762e+05 1.074582e+05 1.074582e+05 1.209920e+05 9.271974e+04 9.316007e+04 9.316007e+04 9.198605e+04 9.198605e+04 9.909226e+04 9.909226e+04 1.011560e+05 1.136404e+05 1.136404e+05 1.121371e+05 1.121371e+05 9.597110e+04 1.142303e+05 1.247849e+05 1.241407e+05 1.241407e+05 1.126723e+05 1.066225e+05 9.836001e+04 1.223732e+05 1.223732e+05 1.141171e+05 1.241646e+05 1.241646e+05 8.298732e+04 8.298732e+04 1.162504e+05 1.203177e+05 1.203177e+05 1.203177e+05 1.184200e+05 1.184200e+05 1.215949e+05 1.093739e+05 1.093739e+05 1.187934e+05 1.187934e+05 1.172819e+05 9.837410e+04 1.057011e+05 8.875206e+04 8.784141e+04 1.213031e+05 1.213031e+05 9.013034e+04 9.013034e+04 1.029230e+05 1.029230e+05 8.444922e+04 1.074026e+05 1.074026e+05 1.058121e+05 9.571920e+04 9.571920e+04 1.155651e+05 1.155651e+05 1.139449e+05 1.098454e+05 1.098454e+05 9.920274e+04 9.920274e+04 1.046456e+05 1.046456e+05 1.017261e+05 1.019863e+05 1.019863e+05 9.238891e+04 9.217061e+04 9.807062e+04 1.090969e+05 1.092534e+05 1.193967e+05 1.189287e+05 1.155209e+05 1.155209e+05 1.192081e+05 9.497760e+04 9.497760e+04 9.295308e+04 1.115318e+05 1.189253e+05 1.206724e+05 1.206724e+05 1.015730e+05 1.015730e+05 1.160559e+05 1.185936e+05 9.846508e+04 9.846508e+04 1.145588e+05 1.145588e+05 9.096675e+04 9.427114e+04 9.427114e+04 9.427114e+04 9.263476e+04 9.263476e+04 1.141665e+05 1.126705e+05 1.100962e+05 1.100962e+05 1.120847e+05 1.120847e+05 1.140272e+05 9.735174e+04 1.175507e+05 1.150467e+05 1.067163e+05 1.043563e+05 1.091735e+05 1.064775e+05 1.116848e+05 1.001734e+05 1.053903e+05 1.081687e+05 1.067848e+05 1.073589e+05 1.110134e+05 1.103262e+05 1.023075e+05 1.023075e+05 1.066759e+05 1.059879e+05 1.089990e+05 1.011790e+05 1.018432e+05 1.073790e+05 1.073790e+05 1.072197e+05 1.072197e+05 1.035505e+05 1.035505e+05 1.062564e+05 1.051000e+05 1.051000e+05 1.051000e+05 1.050849e+05 1.050849e+05 9.778748e+04 9.778748e+04 9.778748e+04 9.320126e+04 9.320126e+04 8.640255e+04 8.736382e+04 1.003454e+05 8.640255e+04 8.640255e+04 8.541829e+04 9.098386e+04 9.386004e+04 9.529954e+04 9.588982e+04 9.602674e+04 9.827266e+04 9.846926e+04 9.990729e+04 9.990729e+04 1.032604e+05 8.463443e+04 1.003454e+05 1.187006e+05 1.128235e+05 1.061954e+05 1.186523e+05 1.186523e+05 1.158605e+05 1.155738e+05 1.158605e+05 1.035213e+05 1.142561e+05 1.046842e+05 1.009837e+05 1.012650e+05 1.012650e+05 1.053201e+05 1.445564e+05 1.445564e+05 1.444248e+05 1.442254e+05 1.441301e+05 1.440142e+05 1.438290e+05 1.436109e+05 1.434320e+05 1.432435e+05 1.430428e+05 1.428333e+05 1.426126e+05 1.423845e+05 1.421825e+05 1.418467e+05 1.416259e+05 1.414178e+05 1.411244e+05 1.408352e+05 1.405784e+05 1.402699e+05 1.399592e+05 1.396322e+05 1.392917e+05 1.389032e+05 1.385689e+05 1.382524e+05 1.378983e+05 1.374746e+05 1.371421e+05 1.367301e+05 1.363514e+05 1.358886e+05 1.354061e+05 1.350745e+05 1.346605e+05 1.342253e+05 1.337068e+05 1.332985e+05 1.328445e+05 1.323667e+05 1.319322e+05 1.314001e+05 1.308868e+05 1.304282e+05 1.299778e+05 1.294914e+05 1.288306e+05 1.283513e+05 1.278314e+05 1.272898e+05 1.267508e+05 1.262394e+05 1.256142e+05 1.251174e+05 1.245673e+05 1.240375e+05 1.234736e+05 1.229047e+05 1.223510e+05 1.217857e+05 1.211541e+05 1.205991e+05 1.200283e+05 1.194109e+05 1.187231e+05 1.181643e+05 1.175867e+05 1.170093e+05 1.163486e+05 1.157508e+05 1.151452e+05 1.145436e+05 1.138720e+05 1.132812e+05 1.126142e+05 1.119791e+05 1.113281e+05 1.107609e+05 1.100322e+05 1.093688e+05 1.087211e+05 1.080512e+05 1.074516e+05 1.068302e+05 1.062067e+05 1.055780e+05 1.048720e+05 1.042101e+05 1.035727e+05 1.029302e+05 1.023619e+05 1.016923e+05 1.010434e+05 1.004588e+05 9.978430e+04 9.915519e+04 9.854841e+04 9.779134e+04 9.719172e+04 9.657707e+04 9.601868e+04 9.530227e+04 9.469759e+04 9.409691e+04 9.349271e+04 9.284751e+04 9.224398e+04 9.166778e+04 9.109242e+04 9.050355e+04 8.992385e+04 8.924011e+04 8.864729e+04 8.798355e+04 8.739619e+04 8.685803e+04 8.626439e+04 8.568247e+04 8.514951e+04 8.459838e+04 8.402511e+04 8.347090e+04 8.293698e+04 8.235307e+04 8.187569e+04 8.130581e+04 8.075495e+04 8.027122e+04 7.979574e+04 7.916078e+04 7.870879e+04 7.823871e+04 7.782659e+04 7.728331e+04 7.680587e+04 7.640936e+04 7.587166e+04 7.548199e+04 7.507484e+04 7.454098e+04 7.414872e+04 7.371812e+04 7.326924e+04 7.289381e+04 7.250607e+04 7.208950e+04 7.168327e+04 7.137911e+04 7.104111e+04 7.061085e+04 7.025281e+04 6.992763e+04 6.956398e+04 6.926074e+04 6.899029e+04 6.856777e+04 6.829431e+04 6.799870e+04 6.774094e+04 6.742523e+04 6.718479e+04 6.691056e+04 6.665743e+04 6.645174e+04 6.624914e+04 6.606464e+04 6.586114e+04 6.570201e+04 6.543528e+04 6.526096e+04 6.508850e+04 6.494340e+04 6.482763e+04 6.464885e+04 6.453430e+04 6.440802e+04 6.427157e+04 6.418234e+04 6.412346e+04 1.025352e+05 1.025352e+05 1.025352e+05 1.041762e+05 1.041762e+05 1.041762e+05 1.045637e+05 1.042399e+05 1.063343e+05 1.051958e+05 1.085932e+05 1.085932e+05 1.085932e+05 1.085479e+05 9.652636e+04 9.652636e+04 9.652636e+04 9.646687e+04 9.711586e+04 1.315668e+05 1.315668e+05 1.315668e+05 1.314701e+05 1.311335e+05 1.311335e+05 1.311335e+05 1.303312e+05 9.941002e+04 9.941002e+04 9.941002e+04 1.000577e+05 1.005967e+05 1.005761e+05 7.875767e+04 7.875767e+04 7.875767e+04 7.779156e+04 7.779156e+04 1.302593e+05 1.302593e+05 1.302593e+05 1.296964e+05 7.294194e+04 7.294194e+04 7.294194e+04 7.205698e+04 7.205698e+04 1.425612e+05 1.425612e+05 1.425612e+05 1.137198e+05 1.137198e+05 1.137198e+05 1.141043e+05 1.076381e+05 1.076381e+05 1.076381e+05 1.279153e+05 1.279153e+05 1.279153e+05 1.279472e+05 8.023405e+04 8.023405e+04 8.029327e+04 8.029327e+04 1.159733e+05 1.159733e+05 1.164521e+05 1.288676e+05 1.288676e+05 1.288676e+05 1.294780e+05 1.294780e+05 6.862731e+04 6.862731e+04 6.862731e+04 6.945680e+04 6.945680e+04 9.905141e+04 9.905141e+04 9.905141e+04 9.811414e+04 9.811414e+04 1.325387e+05 1.325387e+05 1.168139e+05 1.168139e+05 1.168139e+05 1.169594e+05 1.077637e+05 1.077637e+05 1.077637e+05 1.074982e+05 1.075544e+05 1.181643e+05 1.181643e+05 1.181643e+05 1.146818e+05 1.146818e+05 1.149233e+05 1.350745e+05 1.353168e+05 1.353168e+05 6.494340e+04 6.544706e+04 6.544706e+04 1.071206e+05 8.293698e+04 8.335579e+04 1.075812e+05 1.039499e+05 1.039499e+05 1.039499e+05 1.045704e+05 9.867119e+04 1.039159e+05 1.039159e+05 1.039159e+05 1.049764e+05 1.049764e+05 9.550039e+04 9.550039e+04 9.550039e+04 9.639430e+04 8.827351e+04 8.827351e+04 8.827351e+04 8.809761e+04 1.304472e+05 1.302232e+05 1.292581e+05 1.325061e+05 1.325061e+05 1.054715e+05 1.054715e+05 1.054715e+05 1.060616e+05 1.205448e+05 1.205448e+05 1.205448e+05 1.212706e+05 1.212706e+05 1.205948e+05 8.407832e+04 8.407832e+04 8.407832e+04 8.367030e+04 8.823512e+04 8.823512e+04 8.823512e+04 8.902642e+04 8.948386e+04 1.155668e+05 1.155668e+05 1.155668e+05 1.156325e+05 7.124889e+04 6.922665e+04 9.473658e+04 9.473658e+04 9.473658e+04 9.546717e+04 7.959449e+04 7.959449e+04 7.959449e+04 7.986963e+04 1.253843e+05 1.253843e+05 1.253843e+05 1.263054e+05 1.263054e+05 7.540456e+04 7.540456e+04 7.540456e+04 7.580247e+04 1.250769e+05 1.250769e+05 1.250769e+05 1.248115e+05 1.303681e+05 1.303681e+05 1.303681e+05 1.303435e+05 8.413650e+04 8.413650e+04 8.407723e+04 1.082575e+05 1.082575e+05 1.099396e+05 1.099396e+05 1.099396e+05 1.047353e+05 1.047353e+05 1.047353e+05 1.044520e+05 6.523707e+04 6.523707e+04 6.523707e+04 6.514511e+04 6.514511e+04 1.390905e+05 1.390905e+05 1.390905e+05 1.387076e+05 1.387076e+05 1.086888e+05 1.241679e+05 1.241679e+05 1.245710e+05 6.469202e+04 6.469202e+04 6.469202e+04 6.462988e+04 6.989649e+04 6.989649e+04 7.030328e+04 7.030328e+04 1.333519e+05 1.333519e+05 1.336550e+05 1.288176e+05 1.288176e+05 6.831742e+04 6.831742e+04 6.870733e+04 6.870733e+04 1.267229e+05 1.267229e+05 1.267229e+05 1.264517e+05 1.072744e+05 1.068972e+05 1.156069e+05 1.156069e+05 1.156069e+05 1.152187e+05 1.195692e+05 1.195692e+05 1.195692e+05 1.188576e+05 1.188576e+05 6.700712e+04 6.700712e+04 6.700712e+04 6.700761e+04 6.700761e+04 1.171586e+05 1.177846e+05 1.419753e+05 1.419753e+05 1.419753e+05 1.418788e+05 7.126688e+04 7.126688e+04 7.126688e+04 7.052840e+04 7.052840e+04 7.134199e+04 7.160981e+04 1.090986e+05 1.090986e+05 1.090986e+05 1.084490e+05 1.084490e+05 1.011561e+05 1.014229e+05 1.014229e+05 8.072136e+04 8.072136e+04 8.072136e+04 8.102959e+04 8.102959e+04 8.406599e+04 8.406599e+04 8.406599e+04 8.351575e+04 8.351575e+04 7.408626e+04 7.408626e+04 7.