<?xml version="1.0"?>
 <VTKFile type="UnstructuredGrid" version="1.0" byte_order="LittleEndian" header_type="UInt64">
  <UnstructuredGrid>
    <FieldData>
     <DataArray type="Float64" Name="TimeValue" NumberOfTuples="1" format="ascii">
0.003
     </DataArray>
    </FieldData>
   <Piece NumberOfPoints="3662" NumberOfCells="3444">
    <PointData>
     <DataArray type="Float64" Name="pointP" format="ascii">
1.000000e-200 1.000000e-200 1.000000e-200 1.000000e-200 1.000000e-200 1.000000e-200 1.000000e-200 1.000000e-200 1.000000e-200 1.000000e-200 1.000000e-200 1.000000e-200 1.000000e-200 1.000000e-200 1.000000e-200 1.000000e-200 1.000000e-200 1.000000e-200 1.000000e-200 1.000000e-200 1.000000e-200 1.000000e-200 1.000000e-200 1.000000e-200 1.000000e-200 1.000000e-200 1.000000e-200 1.000000e-200 1.000000e-200 1.000000e-200 1.000000e-200 1.000000e-200 1.000000e-200 1.000000e-200 1.000000e-200 1.000000e-200 1.000000e-200 1.000000e-200 1.000000e-200 1.000000e-200 1.000000e-200 1.000000e-200 1.000000e-200 1.000000e-200 1.000000e-200 1.000000e-200 1.000000e-200 1.000000e-200 1.000000e-200 1.000000e-200 1.000000e-200 1.000000e-200 1.000000e-200 1.000000e-200 1.000000e-200 1.000000e-200 1.000000e-200 1.000000e-200 1.000000e-200 1.000000e-200 1.000000e-200 1.000000e-200 1.000000e-200 1.000000e-200 1.000000e-200 1.000000e-200 1.000000e-200 1.000000e-200 1.000000e-200 1.000000e-200 1.000000e-200 1.000000e-200 1.000000e-200 1.000000e-200 1.000000e-200 1.000000e-200 1.000000e-200 1.000000e-200 1.000000e-200 1.000000e-200 1.000000e-200 1.000000e-200 1.000000e-200 1.000000e-200 1.000000e-200 1.000000e-200 1.000000e-200 1.000000e-200 1.000000e-200 1.000000e-200 1.000000e-200 1.000000e-200 1.000000e-200 1.000000e-200 1.000000e-200 1.000000e-200 1.000000e-200 1.000000e-200 1.000000e-200 1.000000e-200 1.000000e-200 1.000000e-200 1.000000e-200 9.918672e+03 2.525721e+04 1.986111e+05 2.394841e+05 2.812822e+05 2.830326e+05 2.641244e+05 2.139279e+05 2.185498e+05 2.045196e+05 1.813047e+05 1.452367e+05 1.002026e+05 6.173389e+04 3.918253e+04 1.472352e+04 1.279257e-198 1.195854e-198 1.104219e-198 1.022295e-198 1.022295e-198 4.591275e+04 3.923764e+04 3.843633e+04 3.837326e+04 3.819785e+04 3.811041e+04 3.822316e+04 3.822316e+04 3.840461e+04 3.824644e+04 3.815367e+04 3.815367e+04 3.755113e+04 3.755113e+04 3.713774e+04 3.668615e+04 3.650295e+04 3.595937e+04 3.552492e+04 3.371879e+04 3.371879e+04 3.212311e+04 3.212311e+04 3.132386e+04 2.696427e+04 2.584502e+04 2.073557e+04 2.010560e+04 1.220514e+04 4.960845e+03 1.000000e-200 1.000000e-200 1.000000e-200 1.000000e-200 1.000000e-200 1.000000e-200 1.000000e-200 1.000000e-200 1.000000e-200 1.000000e-200 1.000000e-200 1.000000e-200 1.000000e-200 1.000000e-200 1.000000e-200 1.000000e-200 1.000000e-200 1.000000e-200 1.000000e-200 1.000000e-200 1.000000e-200 1.000000e-200 1.000000e-200 1.000000e-200 1.000000e-200 1.000000e-200 4.342866e+04 3.249822e+04 3.249822e+04 3.249822e+04 3.221771e+04 2.288455e+04 2.288455e+04 2.288455e+04 2.558645e+04 2.558645e+04 2.852806e+04 2.852806e+04 2.852806e+04 2.693146e+04 2.667271e+04 3.618507e+04 2.741249e+04 2.741249e+04 2.897518e+04 3.095095e+04 3.095095e+04 3.095095e+04 3.122880e+04 3.207502e+04 1.000000e-200 1.000000e-200 1.000000e-200 1.000000e-200 3.625739e+04 3.625739e+04 3.625739e+04 3.711358e+04 3.934448e+04 3.934448e+04 3.316360e+04 3.316360e+04 2.702668e+04 3.059784e+04 4.342866e+04 4.342866e+04 3.804482e+04 3.804482e+04 3.804482e+04 3.830372e+04 3.846006e+04 3.846006e+04 3.788089e+04 6.293006e+03 6.293006e+03 6.293006e+03 1.119998e+04 1.558860e+04 1.128961e+04 1.602823e+04 7.963459e+03 7.963459e+03 7.963459e+03 7.066421e+03 7.692051e+03 1.000000e-200 1.000000e-200 1.000000e-200 1.000000e-200 1.000000e-200 1.000000e-200 1.000000e-200 1.000000e-200 1.000000e-200 1.000000e-200 1.000000e-200 1.000000e-200 1.000000e-200 1.000000e-200 1.000000e-200 1.000000e-200 1.000000e-200 1.000000e-200 1.000000e-200 1.000000e-200 1.000000e-200 1.000000e-200 1.000000e-200 1.000000e-200 1.000000e-200 1.000000e-200 1.000000e-200 7.545494e+03 7.545494e+03 7.545494e+03 3.497585e+02 1.000000e-200 1.000000e-200 1.000000e-200 1.000000e-200 1.000000e-200 1.000000e-200 1.000000e-200 1.000000e-200 1.000000e-200 1.000000e-200 1.000000e-200 1.000000e-200 1.000000e-200 1.000000e-200 8.910288e-199 5.054066e+03 1.000000e-200 1.000000e-200 1.000000e-200 1.000000e-200 1.000000e-200 1.000000e-200 1.000000e-200 1.000000e-200 1.000000e-200 1.000000e-200 1.000000e-200 1.000000e-200 1.000000e-200 1.000000e-200 1.000000e-200 1.000000e-200 1.000000e-200 1.813047e+05 1.000000e-200 1.000000e-200 1.000000e-200 1.000000e-200 1.000000e-200 1.000000e-200 1.000000e-200 1.000000e-200 1.000000e-200 1.000000e-200 1.000000e-200 1.000000e-200 1.000000e-200 1.000000e-200 1.000000e-200 1.000000e-200 1.000000e-200 1.000000e-200 1.000000e-200 1.000000e-200 1.000000e-200 5.054066e+03 5.054066e+03 8.910288e-199 1.000000e-200 1.000000e-200 1.000000e-200 1.000000e-200 1.000000e-200 1.000000e-200 1.000000e-200 1.000000e-200 1.000000e-200 1.000000e-200 1.000000e-200 1.000000e-200 1.000000e-200 1.000000e-200 1.000000e-200 1.000000e-200 1.000000e-200 1.000000e-200 1.000000e-200 1.000000e-200 1.000000e-200 1.000000e-200 1.000000e-200 1.000000e-200 1.000000e-200 1.000000e-200 1.000000e-200 1.000000e-200 1.000000e-200 2.393489e+03 2.393489e+03 2.529787e+03 2.529787e+03 1.136776e+04 1.136776e+04 1.136776e+04 8.180700e+03 8.180700e+03 2.617826e+04 2.617826e+04 2.617826e+04 2.840360e+04 2.480014e+04 9.610966e+03 1.171492e+04 1.000000e-200 1.000000e-200 1.000000e-200 1.000000e-200 1.000000e-200 1.000000e-200 1.000000e-200 1.000000e-200 1.000000e-200 1.000000e-200 1.000000e-200 1.000000e-200 1.000000e-200 1.000000e-200 1.000000e-200 1.000000e-200 1.000000e-200 1.000000e-200 1.000000e-200 1.000000e-200 1.000000e-200 1.000000e-200 1.000000e-200 1.000000e-200 1.000000e-200 1.000000e-200 1.000000e-200 1.000000e-200 1.000000e-200 1.000000e-200 1.000000e-200 1.000000e-200 1.000000e-200 1.000000e-200 1.000000e-200 1.000000e-200 1.000000e-200 1.000000e-200 1.000000e-200 1.000000e-200 1.000000e-200 1.000000e-200 1.000000e-200 1.000000e-200 1.000000e-200 1.000000e-200 1.000000e-200 1.000000e-200 1.000000e-200 1.000000e-200 1.000000e-200 1.000000e-200 1.000000e-200 1.000000e-200 1.000000e-200 1.000000e-200 1.000000e-200 1.000000e-200 1.000000e-200 1.000000e-200 1.000000e-200 1.000000e-200 1.000000e-200 1.000000e-200 1.000000e-200 1.000000e-200 1.000000e-200 1.000000e-200 1.000000e-200 1.000000e-200 1.000000e-200 1.000000e-200 1.000000e-200 1.000000e-200 1.000000e-200 1.000000e-200 1.000000e-200 1.000000e-200 1.000000e-200 1.000000e-200 1.000000e-200 1.000000e-200 1.000000e-200 1.000000e-200 1.000000e-200 1.000000e-200 1.000000e-200 1.000000e-200 1.000000e-200 2.252499e+05 2.252499e+05 1.607933e+05 1.000000e-200 1.000000e-200 1.000000e-200 1.000000e-200 1.000000e-200 1.000000e-200 1.000000e-200 1.000000e-200 1.000000e-200 1.000000e-200 1.000000e-200 1.000000e-200 1.000000e-200 1.000000e-200 1.000000e-200 1.000000e-200 1.000000e-200 1.000000e-200 6.057060e+03 1.000000e-200 1.000000e-200 1.000000e-200 1.000000e-200 1.000000e-200 1.000000e-200 1.000000e-200 1.000000e-200 1.000000e-200 1.000000e-200 1.000000e-200 1.000000e-200 1.000000e-200 1.000000e-200 1.000000e-200 1.000000e-200 1.000000e-200 1.000000e-200 1.000000e-200 1.000000e-200 1.000000e-200 1.000000e-200 1.000000e-200 1.000000e-200 1.000000e-200 1.000000e-200 1.000000e-200 1.000000e-200 1.000000e-200 1.000000e-200 1.000000e-200 1.000000e-200 1.000000e-200 1.000000e-200 1.000000e-200 1.000000e-200 1.000000e-200 1.000000e-200 1.000000e-200 1.000000e-200 1.000000e-200 1.000000e-200 1.000000e-200 1.000000e-200 5.115043e+03 5.115043e+03 5.115043e+03 2.482466e+03 2.482466e+03 1.000000e-200 1.000000e-200 1.000000e-200 1.000000e-200 1.000000e-200 1.000000e-200 1.000000e-200 1.000000e-200 1.000000e-200 1.000000e-200 1.000000e-200 1.000000e-200 1.000000e-200 1.000000e-200 1.000000e-200 1.000000e-200 1.000000e-200 1.000000e-200 1.000000e-200 1.000000e-200 1.000000e-200 1.000000e-200 1.000000e-200 1.000000e-200 1.000000e-200 1.000000e-200 1.000000e-200 1.000000e-200 1.000000e-200 1.000000e-200 1.000000e-200 1.000000e-200 1.000000e-200 1.000000e-200 1.000000e-200 1.000000e-200 1.000000e-200 1.000000e-200 1.000000e-200 1.000000e-200 1.000000e-200 1.000000e-200 1.000000e-200 1.000000e-200 1.000000e-200 1.000000e-200 1.000000e-200 6.884291e+03 6.884291e+03 1.937630e+04 1.937630e+04 1.937630e+04 1.364297e+04 1.898376e+04 2.367315e+04 2.058142e+04 1.000000e-200 1.000000e-200 1.000000e-200 1.000000e-200 1.000000e-200 1.000000e-200 1.000000e-200 1.000000e-200 1.000000e-200 1.000000e-200 1.000000e-200 1.000000e-200 1.000000e-200 1.000000e-200 1.000000e-200 1.000000e-200 1.000000e-200 1.000000e-200 1.000000e-200 1.000000e-200 3.783236e+04 3.783236e+04 3.783236e+04 2.831081e+04 1.583467e+04 1.000000e-200 1.000000e-200 1.000000e-200 1.000000e-200 2.030495e+05 1.175331e+05 1.175331e+05 1.000000e-200 1.000000e-200 1.000000e-200 1.000000e-200 1.000000e-200 1.000000e-200 1.000000e-200 1.000000e-200 1.000000e-200 1.000000e-200 1.000000e-200 1.000000e-200 1.000000e-200 1.000000e-200 1.000000e-200 1.000000e-200 1.000000e-200 1.000000e-200 1.000000e-200 1.000000e-200 1.000000e-200 1.000000e-200 1.000000e-200 1.000000e-200 1.000000e-200 1.000000e-200 1.000000e-200 1.713007e+05 1.713007e+05 1.713007e+05 1.000000e-200 1.000000e-200 1.000000e-200 1.003417e-198 1.003417e-198 1.027399e-198 1.000000e-200 1.000000e-200 1.000000e-200 1.000000e-200 1.000000e-200 1.000000e-200 1.000000e-200 1.000000e-200 1.000000e-200 1.000000e-200 1.000000e-200 1.000000e-200 1.000000e-200 1.000000e-200 1.000000e-200 1.000000e-200 1.000000e-200 1.000000e-200 1.000000e-200 1.000000e-200 1.000000e-200 1.000000e-200 1.000000e-200 1.000000e-200 1.000000e-200 1.000000e-200 1.000000e-200 1.000000e-200 1.000000e-200 1.000000e-200 2.185498e+05 1.000000e-200 1.000000e-200 1.000000e-200 1.000000e-200 1.000000e-200 1.000000e-200 1.686564e+05 1.686564e+05 1.380710e+05 1.000000e-200 1.000000e-200 1.000000e-200 2.949509e+04 2.949509e+04 1.000000e-200 1.000000e-200 1.000000e-200 1.000000e-200 1.000000e-200 1.000000e-200 1.000000e-200 1.000000e-200 1.000000e-200 2.745098e+05 2.200161e+05 2.200161e+05 1.000000e-200 1.000000e-200 1.000000e-200 1.000000e-200 1.000000e-200 1.000000e-200 1.000000e-200 1.000000e-200 1.000000e-200 1.000000e-200 1.000000e-200 1.000000e-200 1.000000e-200 1.000000e-200 1.000000e-200 1.000000e-200 1.000000e-200 6.602616e+04 6.602616e+04 1.000000e-200 1.000000e-200 1.000000e-200 1.000000e-200 1.104219e-198 1.195854e-198 1.000000e-200 1.000000e-200 4.752188e+03 4.752188e+03 4.752188e+03 4.977409e+03 1.000000e-200 1.003011e-198 7.702141e+04 7.702141e+04 1.000000e-200 1.000000e-200 1.000000e-200 1.000000e-200 1.000000e-200 1.000000e-200 7.563890e+03 7.563890e+03 1.000000e-200 1.000000e-200 1.000000e-200 1.000000e-200 1.000000e-200 1.000000e-200 1.000000e-200 1.000000e-200 1.000000e-200 1.000000e-200 1.000000e-200 7.901821e+04 1.000000e-200 1.000000e-200 1.237476e-198 1.000000e-200 1.000000e-200 1.000000e-200 3.615862e+03 1.000000e-200 1.000000e-200 1.000000e-200 1.000000e-200 1.000000e-200 1.000000e-200 1.000000e-200 1.000000e-200 1.000000e-200 1.000000e-200 1.000000e-200 1.000000e-200 1.000000e-200 1.000000e-200 1.000000e-200 1.000000e-200 1.000000e-200 1.000000e-200 1.310252e+05 1.000000e-200 1.000000e-200 1.000000e-200 1.000000e-200 1.000000e-200 1.000000e-200 1.000000e-200 1.000000e-200 1.000000e-200 1.000000e-200 1.000000e-200 1.000000e-200 1.000000e-200 1.000000e-200 1.000000e-200 1.000000e-200 1.000000e-200 1.000000e-200 1.000000e-200 1.000000e-200 1.000000e-200 1.000000e-200 1.000000e-200 1.000000e-200 3.602730e+04 7.023149e+03 5.069949e+04 5.069949e+04 3.761969e+04 2.355389e+04 2.355389e+04 2.462865e+03 2.462865e+03 1.000000e-200 1.000000e-200 1.000000e-200 1.000000e-200 1.000000e-200 1.000000e-200 1.000000e-200 1.000000e-200 1.000000e-200 1.000000e-200 1.000000e-200 1.000000e-200 1.000000e-200 1.000000e-200 1.000000e-200 1.000000e-200 1.000000e-200 1.000000e-200 1.000000e-200 1.000000e-200 1.000000e-200 1.000000e-200 6.722947e+04 6.722947e+04 6.722947e+04 3.137986e+04 3.137986e+04 1.000000e-200 1.000000e-200 1.000000e-200 1.000000e-200 1.000000e-200 1.118355e+02 1.000000e-200 1.000000e-200 1.000000e-200 1.000000e-200 1.000000e-200 1.000000e-200 3.458827e+04 3.458827e+04 3.458827e+04 2.530964e+04 1.000000e-200 1.000000e-200 1.000000e-200 1.000000e-200 1.000000e-200 1.000000e-200 1.000000e-200 1.000000e-200 1.000000e-200 1.000000e-200 6.132632e+04 1.000000e-200 1.000000e-200 1.000000e-200 1.000000e-200 1.000000e-200 1.000000e-200 1.000000e-200 1.000000e-200 1.000000e-200 1.000000e-200 1.000000e-200 1.000000e-200 9.086099e-199 1.000000e-200 1.000000e-200 1.000000e-200 1.000000e-200 1.000000e-200 1.000000e-200 1.000000e-200 1.000000e-200 1.000000e-200 1.000000e-200 1.000000e-200 1.000000e-200 1.000000e-200 1.000000e-200 1.000000e-200 1.000000e-200 1.000000e-200 1.000000e-200 1.000000e-200 1.000000e-200 1.000000e-200 1.000000e-200 1.000000e-200 1.000000e-200 1.000000e-200 1.000000e-200 1.000000e-200 1.000000e-200 1.000000e-200 1.000000e-200 1.000000e-200 1.000000e-200 1.000000e-200 1.000000e-200 1.000000e-200 1.000000e-200 1.000000e-200 1.000000e-200 1.000000e-200 1.000000e-200 1.000000e-200 1.000000e-200 1.000000e-200 1.000000e-200 1.000000e-200 1.000000e-200 1.000000e-200 1.000000e-200 1.000000e-200 1.000000e-200 1.000000e-200 1.000000e-200 1.000000e-200 1.000000e-200 1.000000e-200 1.000000e-200 1.000000e-200 1.000000e-200 1.000000e-200 1.000000e-200 1.000000e-200 1.000000e-200 1.000000e-200 3.707909e+03 1.000000e-200 1.000000e-200 1.000000e-200 1.000000e-200 1.000000e-200 1.000000e-200 1.000000e-200 1.000000e-200 1.000000e-200 1.000000e-200 1.000000e-200 1.000000e-200 1.000000e-200 1.000000e-200 1.000000e-200 1.000000e-200 1.000000e-200 1.000000e-200 1.000000e-200 1.000000e-200 1.000000e-200 1.000000e-200 1.000000e-200 1.000000e-200 1.000000e-200 1.000000e-200 1.000000e-200 1.000000e-200 1.000000e-200 1.000000e-200 1.000000e-200 1.000000e-200 1.000000e-200 1.000000e-200 1.000000e-200 1.000000e-200 1.000000e-200 1.000000e-200 1.000000e-200 1.000000e-200 1.000000e-200 1.000000e-200 1.000000e-200 1.000000e-200 1.000000e-200 1.000000e-200 1.000000e-200 1.000000e-200 1.000000e-200 1.000000e-200 1.000000e-200 1.000000e-200 1.000000e-200 1.000000e-200 1.000000e-200 5.125281e+03 5.125281e+03 1.000000e-200 1.000000e-200 1.000000e-200 1.000000e-200 1.000000e-200 1.000000e-200 1.000000e-200 1.000000e-200 1.000000e-200 1.000000e-200 1.000000e-200 1.000000e-200 1.000000e-200 1.000000e-200 1.000000e-200 1.000000e-200 1.000000e-200 1.000000e-200 1.000000e-200 1.000000e-200 1.000000e-200 1.000000e-200 4.998446e+03 1.000000e-200 1.000000e-200 1.000000e-200 1.000000e-200 1.000000e-200 1.000000e-200 1.000000e-200 1.000000e-200 1.000000e-200 1.000000e-200 1.000000e-200 1.000000e-200 1.000000e-200 1.000000e-200 1.000000e-200 1.000000e-200 1.000000e-200 1.000000e-200 1.000000e-200 1.000000e-200 1.000000e-200 1.000000e-200 1.000000e-200 1.000000e-200 1.000000e-200 1.000000e-200 1.000000e-200 1.000000e-200 1.000000e-200 1.000000e-200 1.000000e-200 1.000000e-200 1.000000e-200 1.000000e-200 1.000000e-200 1.000000e-200 1.000000e-200 1.000000e-200 1.000000e-200 1.000000e-200 1.000000e-200 1.000000e-200 1.000000e-200 1.000000e-200 1.000000e-200 1.000000e-200 1.000000e-200 1.000000e-200 1.000000e-200 1.000000e-200 1.000000e-200 1.000000e-200 1.000000e-200 1.000000e-200 1.000000e-200 1.000000e-200 1.000000e-200 1.000000e-200 1.000000e-200 1.000000e-200 1.000000e-200 1.000000e-200 1.000000e-200 1.000000e-200 1.000000e-200 1.000000e-200 1.000000e-200 1.000000e-200 1.000000e-200 1.000000e-200 1.000000e-200 1.000000e-200 1.000000e-200 1.000000e-200 1.000000e-200 1.000000e-200 1.000000e-200 1.000000e-200 1.000000e-200 1.000000e-200 1.000000e-200 1.000000e-200 1.000000e-200 1.000000e-200 1.000000e-200 1.000000e-200 1.000000e-200 1.000000e-200 1.000000e-200 1.000000e-200 1.000000e-200 1.000000e-200 1.000000e-200 1.000000e-200 1.000000e-200 1.000000e-200 1.000000e-200 1.000000e-200 1.000000e-200 1.000000e-200 1.000000e-200 1.000000e-200 1.000000e-200 1.000000e-200 1.000000e-200 1.000000e-200 1.000000e-200 1.000000e-200 1.000000e-200 1.000000e-200 1.000000e-200 1.000000e-200 1.000000e-200 1.000000e-200 1.000000e-200 1.000000e-200 1.000000e-200 1.000000e-200 1.000000e-200 1.000000e-200 1.000000e-200 1.000000e-200 1.000000e-200 1.000000e-200 1.000000e-200 1.000000e-200 1.000000e-200 1.000000e-200 1.000000e-200 1.000000e-200 1.000000e-200 1.000000e-200 1.000000e-200 1.000000e-200 1.000000e-200 1.000000e-200 1.000000e-200 1.000000e-200 1.000000e-200 1.000000e-200 1.000000e-200 1.000000e-200 1.000000e-200 1.000000e-200 1.000000e-200 1.000000e-200 1.000000e-200 1.000000e-200 1.000000e-200 1.000000e-200 1.000000e-200 1.000000e-200 1.000000e-200 1.000000e-200 1.000000e-200 1.000000e-200 1.000000e-200 1.000000e-200 1.000000e-200 1.000000e-200 1.000000e-200 1.000000e-200 1.000000e-200 1.000000e-200 1.000000e-200 1.000000e-200 1.000000e-200 1.000000e-200 1.000000e-200 1.000000e-200 1.000000e-200 1.000000e-200 1.000000e-200 1.000000e-200 1.000000e-200 1.000000e-200 1.000000e-200 1.000000e-200 1.000000e-200 1.000000e-200 1.000000e-200 1.000000e-200 1.000000e-200 1.000000e-200 1.000000e-200 1.000000e-200 1.000000e-200 1.000000e-200 1.000000e-200 1.000000e-200 1.000000e-200 1.000000e-200 1.000000e-200 1.000000e-200 1.000000e-200 1.000000e-200 1.000000e-200 1.000000e-200 1.000000e-200 1.000000e-200 1.000000e-200 1.000000e-200 1.000000e-200 1.000000e-200 1.000000e-200 1.000000e-200 1.000000e-200 1.000000e-200 1.000000e-200 1.000000e-200 1.000000e-200 1.000000e-200 1.000000e-200 1.000000e-200 1.000000e-200 1.000000e-200 1.000000e-200 1.000000e-200 1.000000e-200 1.000000e-200 1.000000e-200 1.000000e-200 1.000000e-200 1.000000e-200 1.000000e-200 1.000000e-200 1.000000e-200 1.000000e-200 1.000000e-200 1.000000e-200 1.000000e-200 1.000000e-200 1.000000e-200 1.000000e-200 1.000000e-200 1.000000e-200 1.000000e-200 1.000000e-200 1.000000e-200 1.000000e-200 1.000000e-200 1.000000e-200 1.000000e-200 1.000000e-200 1.000000e-200 1.000000e-200 1.000000e-200 1.000000e-200 1.000000e-200 1.000000e-200 1.000000e-200 1.000000e-200 1.000000e-200 1.000000e-200 1.000000e-200 1.000000e-200 1.000000e-200 1.000000e-200 1.000000e-200 1.000000e-200 1.000000e-200 1.000000e-200 1.000000e-200 1.000000e-200 1.000000e-200 1.000000e-200 1.000000e-200 1.232550e+03 1.232550e+03 1.000000e-200 2.045442e+03 8.994110e+03 8.994110e+03 8.994110e+03 2.072315e+03 1.000000e-200 1.268584e+04 6.214057e+03 1.470299e+04 1.268584e+04 1.481400e+04 1.680795e+04 1.680795e+04 1.589658e+04 1.798115e+04 2.233179e+04 1.886970e+04 2.455388e+04 2.455388e+04 2.455388e+04 2.568072e+04 2.818706e+04 2.818706e+04 2.818706e+04 2.706320e+04 2.706320e+04 2.856394e+04 2.924428e+04 2.809429e+04 3.173833e+04 3.226688e+04 2.875878e+04 3.317273e+04 3.381200e+04 3.189081e+04 3.189081e+04 3.344116e+04 3.344116e+04 3.504907e+04 3.483612e+04 3.483612e+04 3.483612e+04 3.572395e+04 3.572395e+04 3.783566e+04 3.783566e+04 3.783566e+04 1.000000e-200 1.000000e-200 1.000000e-200 1.000000e-200 3.618507e+04 3.618507e+04 1.000000e-200 1.000000e-200 1.000000e-200 1.000000e-200 1.000000e-200 4.077619e+04 4.438697e+04 1.000000e-200 1.000000e-200 1.000000e-200 3.811364e+04 1.000000e-200 1.000000e-200 1.000000e-200 2.367315e+04 3.936330e+04 4.205932e+04 3.520404e+04 3.520404e+04 3.542665e+04 1.000000e-200 1.856203e+04 1.856203e+04 1.856203e+04 1.624904e+04 1.000000e-200 1.000000e-200 1.000000e-200 1.000000e-200 1.000000e-200 1.000000e-200 1.000000e-200 1.169911e+04 1.169911e+04 1.169911e+04 1.183243e+04 3.585048e+04 1.000000e-200 1.000000e-200 1.000000e-200 1.000000e-200 1.000000e-200 1.000000e-200 1.000000e-200 1.000000e-200 1.000000e-200 1.000000e-200 1.000000e-200 1.000000e-200 1.000000e-200 1.000000e-200 1.000000e-200 1.000000e-200 1.000000e-200 1.750301e+04 1.000000e-200 1.000000e-200 1.000000e-200 1.976208e+04 2.368481e+04 1.000000e-200 1.959230e+04 2.747396e+04 2.516233e+04 2.516233e+04 3.264717e+04 3.264717e+04 3.264717e+04 3.822316e+04 1.000000e-200 1.000000e-200 1.000000e-200 1.000000e-200 9.476612e+03 2.553792e+04 2.553792e+04 1.000000e-200 1.000000e-200 1.000000e-200 1.000000e-200 1.000000e-200 1.000000e-200 1.882391e+04 3.075420e+04 3.489936e+04 3.489936e+04 3.054001e+04 3.153499e+04 1.000000e-200 1.000000e-200 2.601295e+04 3.303601e+04 3.303601e+04 2.895167e+04 3.090143e+04 3.158307e+04 3.471841e+04 3.471841e+04 3.471841e+04 3.537964e+04 3.537964e+04 3.414646e+04 3.673574e+04 3.673574e+04 3.673574e+04 3.397634e+04 3.397634e+04 3.109592e+04 3.617402e+04 3.617402e+04 3.338054e+04 3.708664e+04 3.708664e+04 3.507717e+04 3.890065e+04 3.661548e+04 3.778821e+04 3.778821e+04 3.778821e+04 3.638490e+04 3.656704e+04 3.704795e+04 3.689099e+04 1.000000e-200 3.726691e+04 3.655994e+04 3.733134e+04 3.811041e+04 1.000000e-200 1.000000e-200 1.000000e-200 1.000000e-200 1.000000e-200 1.000000e-200 1.000000e-200 1.000000e-200 1.000000e-200 1.000000e-200 1.000000e-200 1.000000e-200 1.000000e-200 3.823127e+04 3.779933e+04 3.779933e+04 3.779933e+04 3.744396e+04 3.704279e+04 3.660856e+04 2.766504e+04 3.713734e+04 3.640465e+04 3.586487e+04 3.595507e+04 3.413621e+04 3.487670e+04 3.621442e+04 3.772158e+04 3.707940e+04 3.748603e+04 3.748603e+04 3.805099e+04 3.805099e+04 3.688467e+04 3.739036e+04 3.777146e+04 3.800142e+04 1.000000e-200 1.000000e-200 1.000000e-200 1.000000e-200 1.000000e-200 1.000000e-200 1.000000e-200 1.000000e-200 1.000000e-200 1.000000e-200 1.000000e-200 1.000000e-200 1.000000e-200 1.000000e-200 1.000000e-200 4.095470e+04 4.095470e+04 3.964534e+04 3.964534e+04 3.931710e+04 3.895694e+04 3.855644e+04 3.855644e+04 3.855644e+04 3.859151e+04 3.909951e+04 3.909951e+04 3.963646e+04 3.963646e+04 3.963646e+04 3.127963e+04 3.127963e+04 3.127963e+04 2.825840e+04 2.825840e+04 3.887945e+04 3.887945e+04 3.887945e+04 3.936507e+04 4.095470e+04 4.095487e+04 4.095487e+04 3.859710e+04 3.263947e+04 3.263947e+04 1.000000e-200 1.000000e-200 1.000000e-200 1.000000e-200 1.000000e-200 3.803564e+04 3.781149e+04 3.781149e+04 1.000000e-200 1.000000e-200 1.000000e-200 1.000000e-200 1.000000e-200 1.000000e-200 1.000000e-200 1.000000e-200 1.000000e-200 1.000000e-200 1.000000e-200 3.571045e+04 1.000000e-200 1.000000e-200 1.000000e-200 1.000000e-200 1.000000e-200 1.000000e-200 1.000000e-200 1.000000e-200 1.000000e-200 1.000000e-200 1.000000e-200 1.000000e-200 1.000000e-200 1.000000e-200 1.000000e-200 1.000000e-200 1.000000e-200 1.000000e-200 1.000000e-200 1.000000e-200 1.000000e-200 2.455362e+04 2.455362e+04 4.002408e+04 1.000000e-200 1.000000e-200 1.000000e-200 1.000000e-200 1.000000e-200 1.000000e-200 1.000000e-200 1.000000e-200 1.000000e-200 1.000000e-200 1.000000e-200 1.000000e-200 1.000000e-200 1.000000e-200 1.000000e-200 1.000000e-200 1.000000e-200 1.000000e-200 1.000000e-200 1.000000e-200 1.000000e-200 1.000000e-200 1.000000e-200 1.000000e-200 1.000000e-200 1.000000e-200 1.000000e-200 1.000000e-200 1.000000e-200 1.000000e-200 1.000000e-200 1.000000e-200 1.000000e-200 1.000000e-200 1.000000e-200 1.000000e-200 1.000000e-200 1.000000e-200 1.000000e-200 1.000000e-200 2.960056e+04 4.002408e+04 4.002408e+04 3.778909e+04 3.778909e+04 3.778909e+04 3.795592e+04 3.895971e+04 3.705541e+04 3.705541e+04 3.705541e+04 3.695457e+04 3.592093e+04 3.592093e+04 3.592093e+04 3.627721e+04 3.668615e+04 2.676208e+04 2.676208e+04 2.676208e+04 2.423455e+04 2.598373e+02 2.598373e+02 2.598373e+02 5.122021e+03 1.095161e+04 2.644241e+04 2.644241e+04 2.797479e+04 1.000000e-200 1.000000e-200 1.000000e-200 1.000000e-200 1.000000e-200 1.000000e-200 1.000000e-200 1.000000e-200 3.158518e+04 3.158518e+04 1.000000e-200 1.000000e-200 1.000000e-200 1.000000e-200 1.000000e-200 1.000000e-200 1.000000e-200 1.000000e-200 1.000000e-200 1.000000e-200 1.000000e-200 4.758753e+03 4.758753e+03 4.758753e+03 3.160919e+04 1.000000e-200 1.000000e-200 1.000000e-200 1.000000e-200 1.000000e-200 1.000000e-200 1.000000e-200 1.581980e+04 1.581980e+04 1.000000e-200 1.000000e-200 1.000000e-200 1.000000e-200 1.000000e-200 1.000000e-200 1.000000e-200 1.000000e-200 1.976197e+04 1.976197e+04 1.976197e+04 1.000000e-200 1.000000e-200 1.268852e+04 2.071552e+04 2.794601e+04 3.378436e+03 2.922897e+04 2.928602e+04 2.521621e+04 2.521621e+04 3.857948e+04 1.000000e-200 1.000000e-200 1.000000e-200 2.584502e+04 2.584502e+04 1.000000e-200 1.000000e-200 2.815612e+04 2.815612e+04 3.365337e+04 3.365337e+04 3.365337e+04 1.000000e-200 1.000000e-200 3.299965e+04 2.202687e+04 3.181793e+04 3.260456e+04 3.455103e+04 3.455103e+04 3.455103e+04 3.504539e+04 3.504539e+04 3.225919e+04 3.568425e+04 3.568425e+04 3.501532e+04 3.381762e+04 3.571045e+04 3.748193e+04 3.748193e+04 3.796367e+04 3.831974e+04 1.000000e-200 1.000000e-200 1.000000e-200 1.000000e-200 1.000000e-200 1.000000e-200 3.927185e+04 2.073557e+04 1.000000e-200 1.000000e-200 1.000000e-200 1.000000e-200 1.000000e-200 1.000000e-200 1.000000e-200 1.000000e-200 1.000000e-200 1.000000e-200 1.000000e-200 1.000000e-200 1.000000e-200 1.000000e-200 1.000000e-200 3.371879e+04 3.212311e+04 1.000000e-200 1.000000e-200 3.132386e+04 2.825777e+04 3.413267e+04 3.552492e+04 3.336308e+04 3.530328e+04 3.713774e+04 3.129122e+04 3.663005e+04 3.663005e+04 3.727752e+04 3.736033e+04 3.815367e+04 3.820558e+04 3.820558e+04 3.824644e+04 3.744761e+04 3.768614e+04 1.000000e-200 1.000000e-200 1.000000e-200 1.000000e-200 1.000000e-200 1.000000e-200 1.000000e-200 1.000000e-200 1.000000e-200 3.832849e+04 3.964534e+04 1.000000e-200 1.000000e-200 1.000000e-200 1.000000e-200 1.000000e-200 1.000000e-200 1.000000e-200 1.000000e-200 1.000000e-200 1.000000e-200 1.000000e-200 1.000000e-200 1.000000e-200 1.000000e-200 1.000000e-200 1.000000e-200 1.000000e-200 1.000000e-200 1.000000e-200 1.000000e-200 1.000000e-200 1.000000e-200 1.000000e-200 1.000000e-200 1.000000e-200 1.000000e-200 1.000000e-200 1.000000e-200 1.000000e-200 1.000000e-200 1.000000e-200 1.000000e-200 1.000000e-200 1.000000e-200 1.000000e-200 1.000000e-200 1.000000e-200 1.000000e-200 1.000000e-200 1.000000e-200 1.000000e-200 1.000000e-200 1.000000e-200 1.000000e-200 1.000000e-200 1.000000e-200 1.000000e-200 1.000000e-200 1.000000e-200 1.000000e-200 1.000000e-200 1.000000e-200 1.000000e-200 1.000000e-200 1.000000e-200 1.000000e-200 1.000000e-200 1.000000e-200 1.000000e-200 1.000000e-200 1.000000e-200 1.000000e-200 1.000000e-200 1.000000e-200 1.000000e-200 1.000000e-200 1.000000e-200 1.000000e-200 1.000000e-200 1.000000e-200 1.000000e-200 1.000000e-200 1.000000e-200 1.000000e-200 1.000000e-200 1.000000e-200 1.000000e-200 1.000000e-200 1.000000e-200 1.000000e-200 1.000000e-200 1.000000e-200 1.000000e-200 1.000000e-200 1.000000e-200 1.000000e-200 1.000000e-200 1.000000e-200 1.000000e-200 1.000000e-200 1.000000e-200 1.000000e-200 1.000000e-200 1.000000e-200 1.000000e-200 1.000000e-200 1.000000e-200 1.000000e-200 1.000000e-200 1.000000e-200 1.000000e-200 1.000000e-200 1.000000e-200 9.918672e+03 2.525721e+04 1.986111e+05 2.394841e+05 2.812822e+05 2.830326e+05 2.641244e+05 2.139279e+05 2.185498e+05 2.045196e+05 1.813047e+05 1.452367e+05 1.002026e+05 6.173389e+04 3.918253e+04 1.472352e+04 1.279257e-198 1.195854e-198 1.104219e-198 1.022295e-198 1.022295e-198 4.591275e+04 4.591275e+04 3.849548e+04 3.837326e+04 3.819785e+04 3.811041e+04 3.822316e+04 3.822316e+04 3.840461e+04 3.824644e+04 3.815367e+04 3.815367e+04 3.755113e+04 3.755113e+04 3.713774e+04 3.668615e+04 3.650295e+04 3.595937e+04 3.552492e+04 3.371879e+04 3.371879e+04 3.212311e+04 3.212311e+04 3.132386e+04 2.696427e+04 2.584502e+04 2.073557e+04 2.010560e+04 1.220514e+04 4.960845e+03 1.000000e-200 1.000000e-200 1.000000e-200 1.000000e-200 1.000000e-200 1.000000e-200 1.000000e-200 1.000000e-200 1.000000e-200 1.000000e-200 1.000000e-200 1.000000e-200 1.000000e-200 1.000000e-200 1.000000e-200 1.000000e-200 1.000000e-200 1.000000e-200 1.000000e-200 1.000000e-200 1.000000e-200 1.000000e-200 1.000000e-200 1.000000e-200 1.000000e-200 1.000000e-200 4.342866e+04 3.249822e+04 3.249822e+04 3.249822e+04 3.221771e+04 2.288455e+04 2.288455e+04 2.288455e+04 2.558645e+04 2.558645e+04 2.852806e+04 2.852806e+04 2.852806e+04 2.693146e+04 2.667271e+04 3.618507e+04 2.741249e+04 2.741249e+04 2.897518e+04 3.095095e+04 3.095095e+04 3.095095e+04 3.122880e+04 3.207502e+04 1.000000e-200 1.000000e-200 1.000000e-200 1.000000e-200 3.625739e+04 3.625739e+04 3.625739e+04 3.711358e+04 3.934448e+04 3.934448e+04 3.316360e+04 3.316360e+04 2.702668e+04 3.059784e+04 4.342866e+04 4.342866e+04 3.804482e+04 3.804482e+04 3.804482e+04 3.830372e+04 3.846006e+04 3.846006e+04 3.788089e+04 6.293006e+03 6.293006e+03 6.293006e+03 1.119998e+04 1.558860e+04 1.128961e+04 1.602823e+04 7.963459e+03 7.963459e+03 7.963459e+03 7.066421e+03 7.692051e+03 1.000000e-200 1.000000e-200 1.000000e-200 1.000000e-200 1.000000e-200 1.000000e-200 1.000000e-200 1.000000e-200 1.000000e-200 1.000000e-200 1.000000e-200 1.000000e-200 1.000000e-200 1.000000e-200 1.000000e-200 1.000000e-200 1.000000e-200 1.000000e-200 1.000000e-200 1.000000e-200 1.000000e-200 1.000000e-200 1.000000e-200 1.000000e-200 1.000000e-200 1.000000e-200 1.000000e-200 7.545494e+03 7.545494e+03 7.545494e+03 3.497585e+02 1.000000e-200 1.000000e-200 1.000000e-200 1.000000e-200 1.000000e-200 1.000000e-200 1.000000e-200 1.000000e-200 1.000000e-200 1.000000e-200 1.000000e-200 1.000000e-200 1.000000e-200 1.000000e-200 8.910288e-199 5.054066e+03 1.000000e-200 1.000000e-200 1.000000e-200 1.000000e-200 1.000000e-200 1.000000e-200 1.000000e-200 1.000000e-200 1.000000e-200 1.000000e-200 1.000000e-200 1.000000e-200 1.000000e-200 1.000000e-200 1.000000e-200 1.000000e-200 1.000000e-200 1.813047e+05 1.000000e-200 1.000000e-200 1.000000e-200 1.000000e-200 1.000000e-200 1.000000e-200 1.000000e-200 1.000000e-200 1.000000e-200 1.000000e-200 1.000000e-200 1.000000e-200 1.000000e-200 1.000000e-200 1.000000e-200 1.000000e-200 1.000000e-200 1.000000e-200 1.000000e-200 1.000000e-200 1.000000e-200