<?xml version="1.0"?>
 <VTKFile type="UnstructuredGrid" version="1.0" byte_order="LittleEndian" header_type="UInt64">
  <UnstructuredGrid>
    <FieldData>
     <DataArray type="Float64" Name="TimeValue" NumberOfTuples="1" format="ascii">
3e-06
     </DataArray>
    </FieldData>
   <Piece NumberOfPoints="3662" NumberOfCells="3444">
    <PointData>
     <DataArray type="Float64" Name="pointP" format="ascii">
-3.713226e+10 -5.834852e+10 -6.609237e+10 -6.472016e+10 -6.092071e+10 -5.254676e+10 -5.026489e+10 -4.380109e+10 -4.220440e+10 -4.241957e+10 -4.483183e+10 -4.695403e+10 -4.360324e+10 -4.806349e+10 -5.336491e+10 -5.275515e+10 -4.112640e+10 -3.854156e+10 -3.910154e+10 -3.430620e+10 -3.211865e+10 -2.579380e+10 -3.261620e+10 -3.224298e+10 -5.021726e+10 -5.297116e+10 -4.019822e+10 -4.188656e+10 -3.760162e+10 -3.136573e+10 -3.566902e+10 -4.065882e+10 -3.984299e+10 -3.851983e+10 -3.169880e+10 -2.509310e+10 -2.861396e+10 -2.450409e+10 -1.062770e+10 -1.449945e+10 -1.786790e+10 -1.779404e+10 -1.749960e+10 -2.049240e+10 -2.472751e+10 -2.348046e+10 -2.078541e+10 -1.770505e+10 -2.047328e+10 -2.280412e+10 -2.497973e+10 -2.592525e+10 -2.331644e+10 -1.640083e+10 -1.735408e+10 -1.544590e+10 -1.598446e+10 -1.848423e+10 -1.895145e+10 -1.937720e+10 -1.822297e+10 -1.292869e+10 -7.159687e+09 -6.456797e+09 -5.201797e+09 -5.634144e+09 -5.875747e+09 -6.644570e+09 -6.450383e+09 -5.387760e+09 -5.417731e+09 -7.101555e+09 -7.658894e+09 -8.246480e+09 -8.428591e+09 -7.337428e+09 -6.410474e+09 -5.017879e+09 -3.849849e+09 -2.716645e+09 -2.896211e+09 -2.394382e+09 -1.526437e+09 -1.572578e+09 -1.353922e+09 -1.148242e+09 -9.844255e+08 -8.561963e+08 -8.336802e+08 -7.136349e+08 -5.685956e+08 -1.692145e+08 -8.267861e+07 2.064194e+08 2.934255e+08 4.135366e+08 1.127691e+09 2.011488e+09 2.888099e+09 1.362188e+09 -1.050413e+10 5.890251e+09 2.993755e+09 1.079738e+08 -4.680879e+08 -1.455427e+09 -1.685048e+09 -2.014727e+09 -2.141893e+09 -2.153910e+09 -1.886625e+09 -2.335918e+09 -2.493998e+09 -2.612113e+09 -2.612940e+09 -2.254888e+09 -3.041882e+09 -3.573693e+09 -3.897486e+09 -4.182347e+09 -4.549462e+09 -4.472908e+09 -5.711710e+09 -5.711710e+09 1.599716e+06 3.355496e+06 3.997092e+06 4.071783e+06 4.307378e+06 4.553259e+06 4.784050e+06 4.784050e+06 4.837782e+06 4.997466e+06 5.130375e+06 5.130375e+06 5.757850e+06 5.757850e+06 6.420898e+06 6.910882e+06 7.107933e+06 7.800291e+06 8.557332e+06 1.126980e+07 1.126980e+07 1.512095e+07 1.512095e+07 1.774769e+07 2.579137e+07 2.866225e+07 3.645730e+07 4.008365e+07 5.686883e+07 7.041828e+07 8.477737e+07 1.148277e+08 1.250821e+08 1.788466e+08 2.647316e+08 3.408937e+08 4.285827e+08 4.285827e+08 5.177852e+08 9.171377e+08 9.171377e+08 1.507242e+09 1.779901e+09 1.779901e+09 2.178168e+09 2.211756e+09 2.211756e+09 3.117682e+09 3.133030e+09 2.578268e+09 2.578268e+09 3.502159e+09 -6.850770e+09 -1.215253e+10 -2.240525e+10 -2.960913e+10 -3.094966e+06 1.414438e+07 1.414438e+07 1.414438e+07 1.594787e+07 1.709531e+07 1.709531e+07 1.709531e+07 1.307111e+07 1.307111e+07 2.082609e+07 2.082609e+07 2.082609e+07 2.265848e+07 2.152413e+07 -4.127594e+05 1.215928e+07 1.215928e+07 1.049041e+07 1.541479e+07 1.541479e+07 1.541479e+07 1.422042e+07 1.282350e+07 -1.026163e+09 -1.026163e+09 -1.026163e+09 -2.948284e+08 3.112122e+06 3.112122e+06 3.112122e+06 2.717167e+06 2.262873e+06 2.262873e+06 1.221314e+07 1.221314e+07 1.119941e+07 8.216732e+06 -3.094966e+06 -3.094966e+06 4.350536e+06 4.350536e+06 4.350536e+06 4.128295e+06 3.733023e+06 3.733023e+06 4.074813e+06 3.416378e+07 3.416378e+07 3.416378e+07 3.291049e+07 2.781458e+07 3.371383e+07 2.714396e+07 -5.815395e+08 -5.815395e+08 -5.815395e+08 -6.952292e+08 -2.076193e+08 4.719903e+07 4.384056e+07 4.719903e+07 2.764634e+08 2.764634e+08 2.764634e+08 9.053361e+08 9.053361e+08 9.053361e+08 7.156144e+08 4.111556e+08 6.029202e+08 4.111556e+08 4.111556e+08 7.654122e+08 7.654122e+08 7.654122e+08 7.793594e+08 1.644040e+09 1.644040e+09 1.644040e+09 2.008385e+09 7.274947e+08 7.274947e+08 7.274947e+08 2.073097e+09 2.073097e+09 -3.637803e+08 -3.637803e+08 -3.637803e+08 -2.951225e+08 5.748463e+08 5.748463e+08 5.748463e+08 -1.176341e+08 -1.176341e+08 9.854084e+08 9.854084e+08 9.854084e+08 -9.809572e+08 3.496870e+05 3.496870e+05 3.496870e+05 1.286131e+08 1.286131e+08 -3.822964e+06 -5.561526e+07 -6.067650e+09 -6.067650e+09 -6.067650e+09 -4.507728e+09 -1.954073e+10 -1.954073e+10 -1.954073e+10 -2.608673e+10 -2.608673e+10 -2.991770e+09 -2.991770e+09 -2.991770e+09 -1.998697e+09 -1.536921e+10 -1.536921e+10 -1.536921e+10 -1.069570e+10 -2.612113e+09 -5.341605e+09 -5.341605e+09 -5.341605e+09 -6.175103e+09 -6.175103e+09 -6.175103e+09 -7.777102e+09 -1.177824e+09 -1.177824e+09 -1.177824e+09 -1.473586e+09 2.011488e+09 1.103539e+10 1.103539e+10 1.103539e+10 5.777489e+09 -3.199438e+08 -3.199438e+08 -3.199438e+08 -1.313869e+08 -1.313869e+08 -5.561526e+07 -5.561526e+07 -3.822964e+06 1.857089e+09 1.857089e+09 1.857089e+09 8.851055e+08 8.851055e+08 1.939265e+08 2.940800e+08 2.940800e+08 1.884562e+09 1.884562e+09 1.884562e+09 2.075984e+09 2.075984e+09 1.584047e+09 1.584047e+09 1.584047e+09 1.759815e+09 9.824488e+07 1.761159e+08 9.824488e+07 9.824488e+07 3.619991e+07 -5.159045e+07 -5.159045e+07 -5.159045e+07 8.517746e+05 4.100537e+07 5.685846e+07 5.685846e+07 1.461349e+09 1.461349e+09 -2.130007e+08 -2.130007e+08 3.415963e+07 3.415963e+07 3.415963e+07 4.552829e+07 4.552829e+07 -9.453051e+06 -9.453051e+06 -9.453051e+06 -2.152421e+05 -1.985468e+07 -1.784914e+08 -3.876404e+08 2.542994e+08 2.542994e+08 2.542994e+08 2.105483e+08 7.054934e+08 7.054934e+08 7.054934e+08 6.494418e+08 1.514837e+08 1.514837e+08 1.514837e+08 1.139852e+09 1.139852e+09 1.139852e+09 -2.768514e+07 -2.768514e+07 -2.768514e+07 2.203764e+09 2.203764e+09 2.203764e+09 9.165021e+07 9.165021e+07 9.165021e+07 1.019401e+08 1.378704e+08 -3.401519e+08 -3.401519e+08 -3.401519e+08 1.939696e+07 1.939696e+07 3.175860e+07 4.926043e+08 4.926043e+08 4.926043e+08 5.694200e+08 -2.637333e+08 -2.637333e+08 -2.637333e+08 -2.380595e+08 -1.235018e+09 -1.235018e+09 2.097532e+09 2.097532e+09 2.097532e+09 2.120898e+09 1.308231e+08 1.308231e+08 1.308231e+08 2.745419e+08 -1.125018e+08 -1.125018e+08 -1.125018e+08 -1.140519e+08 2.327115e+09 2.327115e+09 2.327115e+09 5.717433e+08 5.717433e+08 5.717433e+08 6.684686e+08 7.979235e+07 7.979235e+07 7.979235e+07 8.962073e+07 2.903737e+07 2.903737e+07 2.903737e+07 6.268525e+07 -2.026039e+08 -2.026039e+08 -2.026039e+08 -2.330071e+08 -1.214191e+10 -1.214191e+10 -1.214191e+10 -2.802105e+10 -2.802105e+10 -2.802105e+10 -2.507171e+10 -2.938029e+10 -2.938029e+10 -2.938029e+10 -2.433398e+10 -1.447595e+10 -1.447595e+10 -1.126609e+10 -5.673819e+09 -5.673819e+09 -4.076691e+09 -1.566156e+09 -1.566156e+09 -1.214878e+09 -6.358758e+08 -6.358758e+08 -6.358758e+08 -5.832594e+08 -2.343839e+09 -2.343839e+09 -2.343839e+09 -3.147876e+10 -3.147876e+10 -3.075825e+10 -5.362026e+09 -5.362026e+09 -6.412094e+09 -7.509515e+08 -2.125842e+10 -2.102858e+10 9.670506e+08 9.670506e+08 -2.306325e+08 -2.719827e+10 -2.719827e+10 -2.719827e+10 -3.613696e+10 -2.612816e+09 -2.612816e+09 -1.744933e+10 -1.744933e+10 -1.744933e+10 -1.919121e+10 -1.919121e+10 -1.919121e+10 -1.991190e+10 -1.991190e+10 -9.165808e+09 -9.165808e+09 -9.165808e+09 -1.724732e+10 -1.386563e+10 -1.386563e+10 -1.386563e+10 -8.233977e+09 -8.233977e+09 7.090168e+10 7.090168e+10 7.090168e+10 2.727999e+10 2.727999e+10 1.923332e+09 1.923332e+09 9.480363e+08 9.480363e+08 -3.400211e+09 -3.400211e+09 -3.400211e+09 -1.171743e+09 -1.171743e+09 -1.171743e+09 -4.643438e+09 6.765801e+09 6.765801e+09 6.765801e+09 4.801529e+09 4.801529e+09 -6.313926e+08 -6.313926e+08 -6.313926e+08 -5.558876e+08 -5.558876e+08 1.716637e+08 1.716637e+08 1.716637e+08 2.546423e+08 2.546423e+08 1.015116e+09 1.015116e+09 1.015116e+09 1.178660e+09 1.178660e+09 1.589323e+09 1.589323e+09 1.589323e+09 1.905345e+09 8.298134e+08 8.298134e+08 2.077367e+09 2.077367e+09 2.077367e+09 1.663237e+09 1.663237e+09 1.044541e+07 1.044541e+07 1.044541e+07 1.605592e+07 1.605592e+07 -1.437067e+06 -1.437067e+06 -1.437067e+06 6.098978e+07 6.098978e+07 -3.486104e+07 -3.486104e+07 -1.055955e+08 -1.055955e+08 2.042884e+08 2.042884e+08 2.366021e+08 2.366021e+08 -3.001219e+07 2.019488e+07 2.019488e+07 6.891772e+07 6.891772e+07 6.891772e+07 6.464928e+07 6.464928e+07 3.397170e+07 3.397170e+07 -2.146032e+08 -2.146032e+08 -2.146032e+08 -4.960161e+08 2.097640e+07 2.416958e+06 8.968772e+06 -3.245566e+08 -3.245566e+08 -3.245566e+08 -5.686897e+08 -5.686897e+08 -2.305318e+07 -2.305318e+07 -1.050739e+07 -8.511281e+06 -2.564652e+07 2.017415e+09 2.017415e+09 2.017415e+09 1.833578e+09 1.762247e+09 1.762247e+09 2.079313e+09 -2.817174e+08 -2.817174e+08 -2.817174e+08 -2.595297e+09 -2.595297e+09 -2.595297e+09 -2.901604e+09 -2.381543e+09 -1.074020e+10 -1.074020e+10 -1.074020e+10 -1.830567e+09 -1.399921e+09 -2.244586e+09 -2.244586e+09 -2.191940e+10 -2.191940e+10 -5.875747e+09 -4.022906e+09 -4.022906e+09 -4.022906e+09 -1.457967e+10 -1.457967e+10 -1.457967e+10 -1.744461e+10 -6.609237e+10 -4.934316e+10 -4.934316e+10 -3.213432e+10 -3.213432e+10 -3.213432e+10 -4.283825e+10 7.435682e+09 7.435682e+09 1.308600e+10 4.135366e+08 -4.822828e+10 -4.822828e+10 -2.822627e+10 -2.822627e+10 -1.237457e+08 -1.237457e+08 -1.522581e+09 -1.522581e+09 -1.522581e+09 -4.839773e+10 -4.839773e+10 -4.785278e+10 -5.785555e+09 -5.785555e+09 -4.013064e+09 -2.121525e+10 -3.499774e+10 -3.121854e+10 -3.121854e+10 -2.955676e+10 -3.871115e+09 -3.871115e+09 -3.871115e+09 -5.983127e+09 -2.592525e+10 -2.428398e+10 -6.472016e+10 -4.041358e+10 -1.531017e+10 -1.531017e+10 -1.523578e+10 -1.523578e+10 -1.523578e+10 -2.036411e+10 1.548265e+08 1.548265e+08 2.262516e+08 2.262516e+08 -4.863977e+09 -2.177381e+10 -2.177381e+10 -1.870039e+10 -8.100032e+09 -8.100032e+09 -8.100032e+09 -2.335918e+09 -4.380109e+10 -2.741715e+10 -1.289335e+10 -1.289335e+10 -1.289335e+10 -1.216687e+10 -1.795214e+09 -1.795214e+09 -1.544698e+09 -1.239676e+10 -1.239676e+10 -1.584192e+10 -5.032940e+08 -5.032940e+08 -5.613628e+08 -5.613628e+08 -4.042758e+10 -1.062770e+10 -1.040951e+10 -1.341299e+10 -3.507401e+10 -3.507401e+10 -1.225485e+10 -1.963487e+09 -1.690618e+09 -1.690618e+09 8.141709e+08 8.141709e+08 2.414691e+09 2.414691e+09 -2.305319e+10 -2.305319e+10 -5.032923e+09 -2.971691e+10 -4.591891e+09 -4.591891e+09 -4.616937e+09 -1.328345e+10 -1.328345e+10 -1.328345e+10 -3.672832e+10 -3.672832e+10 -9.241876e+08 -1.659054e+09 -1.659054e+09 -2.018403e+10 -1.640011e+10 -2.258539e+10 -4.393466e+09 -4.472908e+09 -4.549462e+09 -2.577600e+10 -8.970145e+09 -1.648664e+09 -1.648664e+09 -1.648664e+09 -1.498421e+09 -1.958500e+10 -3.640171e+09 -8.277817e+08 -8.277817e+08 -1.770505e+10 -1.825344e+10 5.228422e+10 5.228422e+10 -2.053707e+10 -2.053707e+10 -1.079091e+09 -1.079091e+09 6.930102e+08 -2.978024e+09 -2.978024e+09 1.038097e+09 7.905832e+08 -8.835116e+08 -1.319223e+09 -3.516812e+09 -3.516812e+09 -1.100860e+09 -1.100860e+09 -8.551592e+08 -6.248933e+08 -3.130809e+10 -4.022918e+09 -8.600511e+08 -1.062609e+10 -1.718686e+10 -2.015890e+09 1.337223e+10 6.851979e+10 3.183666e+09 -9.096951e+09 -6.547528e+09 -3.114967e+10 -3.114967e+10 -2.820233e+09 -8.239786e+08 -1.587326e+10 2.482235e+10 -1.133968e+10 -1.133968e+10 -7.114551e+09 -7.114551e+09 -7.114551e+09 -2.927292e+08 -2.047778e+09 -1.227199e+09 -1.446570e+10 -1.214568e+10 -5.984508e+09 -5.984508e+09 -5.984508e+09 -6.020055e+09 -6.020055e+09 -6.020055e+09 -8.727778e+09 -2.714253e+10 -2.476718e+09 -1.725408e+09 -3.426165e+08 -3.426165e+08 -3.426165e+08 -5.707099e+09 -5.707099e+09 -5.707099e+09 -9.406476e+09 -6.677677e+09 -6.677677e+09 -6.089237e+09 -3.731445e+09 -3.356727e+09 -6.096184e+08 -3.962746e+08 -6.753875e+08 -6.753875e+08 -6.129198e+08 -1.031576e+09 -1.031576e+09 -5.731834e+08 -5.731834e+08 4.098363e+10 -2.362847e+10 -6.861108e+07 -2.255676e+10 -1.811173e+10 -1.592170e+10 -1.592170e+10 -1.075158e+10 -1.075158e+10 -1.666361e+10 -9.706954e+09 -3.173082e+09 -7.806683e+09 -7.806683e+09 -2.859338e+09 -2.859338e+09 -8.227580e+09 -7.732422e+08 -7.732422e+08 -7.732422e+08 -1.024716e+10 -9.710050e+08 -1.106090e+09 -1.106090e+09 -1.106090e+09 -6.599072e+08 -6.599072e+08 -6.669753e+09 -5.321701e+09 -1.471141e+10 -1.471141e+10 -2.146393e+10 -1.010717e+09 -4.190681e+08 -7.333776e+09 -7.333776e+09 -8.860082e+08 -5.185302e+09 -8.972317e+09 -5.710083e+08 -5.710083e+08 -5.710083e+08 -5.234090e+08 -1.500285e+10 -1.500285e+10 -1.055716e+10 -1.792075e+10 -9.626216e+09 -9.626216e+09 -5.305909e+08 -5.305909e+08 -5.305909e+08 1.408042e+08 -7.288119e+08 1.428620e+08 9.663536e+07 9.663536e+07 -2.736025e+09 -9.003246e+08 -9.003246e+08 -6.809524e+08 -1.683034e+09 -1.741488e+09 -1.741488e+09 -5.970474e+09 -5.970474e+09 -9.848162e+08 2.976553e+08 2.976553e+08 -1.320490e+08 1.114766e+08 1.114766e+08 -1.134661e+09 -9.830205e+08 -2.041926e+09 -4.652056e+09 -3.066367e+08 -3.066367e+08 -3.066367e+08 1.886176e+11 -5.082453e+09 -2.900798e+09 3.344327e+07 3.344327e+07 -7.527255e+08 -7.527255e+08 -7.527255e+08 -4.173422e+08 -4.173422e+08 -4.173422e+08 -2.817582e+08 5.784473e+09 -2.350845e+09 -2.350845e+09 -2.350845e+09 -3.643699e+08 -1.093739e+10 7.965002e+10 -8.506314e+09 -1.514024e+09 -3.193315e+08 -3.193315e+08 -3.305893e+09 -7.949195e+08 -4.513372e+09 -5.198308e+09 -5.198308e+09 -1.194296e+09 -6.256383e+09 -6.256383e+09 -1.270030e+10 -1.099961e+10 -4.338792e+09 -1.219601e+09 -1.219601e+09 -7.648221e+09 -1.290861e+08 -1.290861e+08 -1.223977e+09 -1.223977e+09 1.137208e+08 1.137208e+08 1.524344e+09 1.524344e+09 -3.556735e+08 -5.565145e+09 -1.513819e+09 -4.334095e+08 -4.334095e+08 -3.767543e+09 -2.755247e+08 -3.850388e+09 -5.706036e+08 -2.564546e+09 -2.564546e+09 8.204393e+07 -2.886444e+08 -2.535685e+09 1.013006e+08 7.689496e+08 7.689496e+08 -2.106851e+08 4.507712e+08 4.507712e+08 -5.496640e+08 3.136713e+08 3.136713e+08 3.136713e+08 3.807291e+07 8.893371e+07 -1.374064e+08 -1.374064e+08 -2.587259e+08 -1.590177e+09 -1.590177e+09 6.477749e+08 -2.131959e+08 -2.131959e+08 -2.131959e+08 4.854185e+08 -5.027977e+08 1.770431e+08 1.767430e+09 -1.490619e+09 -5.214995e+07 2.982186e+08 2.982186e+08 -1.362069e+09 -5.472266e+09 -5.472266e+09 -1.409084e+08 -1.060722e+08 -2.644349e+10 -4.830232e+10 -4.830232e+10 1.610335e+09 1.610335e+09 1.610335e+09 8.217550e+08 2.213243e+09 2.213243e+09 1.229548e+08 -1.900323e+09 2.802714e+08 1.406846e+08 1.406846e+08 6.975923e+08 6.975923e+08 8.676039e+08 -9.869589e+08 -9.869589e+08 1.608663e+08 3.324237e+08 1.665666e+09 1.665666e+09 7.342587e+08 7.342587e+08 1.974458e+09 1.974458e+09 -4.425235e+08 -6.331459e+07 1.293831e+10 1.540809e+09 9.549896e+08 9.549896e+08 2.339117e+09 1.607872e+09 1.607872e+09 1.391977e+09 1.391977e+09 1.484728e+09 4.032559e+08 -2.149580e+09 -3.137583e+08 8.107857e+08 7.664478e+08 2.523648e+08 1.116125e+09 1.116125e+09 1.116125e+09 1.954251e+09 1.954251e+09 2.265281e+09 -4.856933e+08 -4.856933e+08 -4.856933e+08 -7.792555e+07 -7.792555e+07 2.579430e+09 2.579430e+09 2.706297e+09 2.438413e+09 3.461709e+09 3.871715e+08 2.577881e+09 2.577881e+09 2.804826e+09 7.249505e+08 2.694381e+09 2.694381e+09 8.258667e+08 -3.371757e+09 -3.371757e+09 -3.371757e+09 -1.068206e+10 1.798174e+09 3.688927e+08 2.395540e+08 1.833769e+08 -8.677098e+07 1.765399e+09 3.710174e+08 5.671027e+07 1.790075e+09 2.258074e+09 2.258074e+09 2.258074e+09 2.547626e+09 -1.743090e+08 3.574314e+09 2.589056e+09 2.690913e+09 1.270562e+09 1.270562e+09 1.270562e+09 3.362754e+08 3.362754e+08 3.362754e+08 4.714407e+08 4.714407e+08 1.967413e+09 2.892450e+09 2.892450e+09 2.892450e+09 4.211749e+08 2.087577e+09 2.087577e+09 2.087577e+09 6.307235e+08 1.485574e+09 1.485574e+09 1.485574e+09 -2.472679e+08 -2.472679e+08 -2.472679e+08 -6.269935e+07 -4.295472e+08 2.685533e+09 2.685533e+09 1.994760e+09 3.222516e+09 2.372596e+08 1.330949e+08 1.330949e+08 1.330949e+08 9.121445e+08 2.677658e+09 2.353467e+09 -7.634642e+08 -2.177459e+08 6.929530e+08 6.711558e+08 2.811369e+09 2.811369e+09 2.898779e+09 2.273976e+09 1.836428e+09 5.017675e+08 3.081696e+09 9.469650e+07 9.469650e+07 3.808447e+08 7.694463e+08 3.189905e+08 3.189905e+08 2.990134e+08 2.189354e+08 -3.903904e+07 -3.903904e+07 1.289578e+09 1.289578e+09 1.429446e+09 1.611087e+09 2.740774e+09 2.652285e+09 5.129467e+08 5.965791e+08 1.787710e+09 2.851817e+09 2.321142e+09 -2.309136e+07 1.466021e+08 1.466021e+08 1.466021e+08 2.839773e+09 2.839773e+09 1.076394e+09 1.076394e+09 9.583011e+08 2.321534e+09 1.636009e+09 1.419527e+09 1.419527e+09 -1.065138e+08 -1.065138e+08 -7.058051e+07 6.636394e+08 6.636394e+08 3.676378e+08 3.023943e+08 6.120000e+07 1.414834e+08 2.976573e+07 1.731365e+08 2.461352e+08 1.404503e+09 8.677111e+08 8.677111e+08 8.677111e+08 1.221847e+09 2.454072e+09 2.528964e+09 4.751548e+08 1.993715e+09 8.474008e+08 8.474008e+08 9.294949e+08 6.375405e+08 6.375405e+08 4.712196e+08 4.712196e+08 2.215085e+08 2.396229e+08 2.071549e+08 9.906177e+07 4.842775e+08 -1.582774e+08 6.327190e+08 6.327190e+08 2.546618e+08 2.546618e+08 2.546618e+08 2.104200e+08 1.867783e+09 1.477116e+09 3.806160e+08 6.396591e+06 1.165897e+08 9.970984e+08 3.333700e+08 3.333700e+08 5.376887e+08 5.376887e+08 -1.176893e+07 -1.176893e+07 4.807300e+08 1.994325e+09 1.271907e+09 1.271907e+09 1.040316e+09 3.333428e+06 4.736339e+08 1.314810e+09 9.834463e+07 9.834463e+07 5.723923e+07 1.882398e+08 2.259668e+08 7.528167e+08 7.528167e+08 8.117421e+07 8.117421e+07 -7.232587e+07 -7.623646e+07 -7.623646e+07 1.197622e+08 6.380786e+08 -5.558114e+07 3.738029e+08 5.137683e+08 6.655379e+08 7.431339e+06 -1.943077e+08 3.419222e+08 3.419222e+08 3.991231e+08 -1.647904e+07 3.619991e+07 -7.784917e+07 -7.784917e+07 -7.784917e+07 2.260873e+08 1.001247e+08 1.001247e+08 2.825303e+08 2.825303e+08 1.869577e+08 1.869577e+08 1.318035e+08 -3.538749e+07 -2.999786e+07 1.348833e+08 1.348833e+08 1.348833e+08 1.367172e+08 -5.793157e+05 -5.793157e+05 1.153785e+08 1.153785e+08 9.485253e+07 9.485253e+07 8.581275e+07 4.138935e+07 4.138935e+07 4.138935e+07 4.430510e+07 7.457328e+07 3.223110e+07 3.223110e+07 -3.653221e+07 9.109911e+07 4.719903e+07 -2.027878e+07 -2.253003e+08 -2.253003e+08 4.219988e+07 1.386889e+08 -1.333414e+08 2.167010e+07 3.208256e+07 5.770701e+08 5.770701e+08 6.409585e+07 7.652844e+07 1.486471e+08 -8.557334e+08 -8.557334e+08 -1.135153e+08 6.061706e+07 6.061706e+07 5.640746e+07 -1.178449e+09 -5.081304e+08 -5.081304e+08 -5.081304e+08 -1.469234e+08 4.854580e+07 -2.498477e+07 -1.436804e+09 -1.374886e+07 -2.498477e+07 -5.119931e+08 -2.183721e+07 -2.183721e+07 -9.127784e+07 -9.718959e+07 -3.176988e+07 1.346469e+08 1.109134e+07 1.109134e+07 1.109134e+07 -3.213953e+05 1.086557e+07 1.086557e+07 1.086557e+07 8.812364e+06 8.812364e+06 7.958487e+06 7.373070e+05 1.479500e+07 5.410934e+06 2.282682e+06 1.094784e+07 4.705472e+06 4.924354e+06 7.046582e+06 7.046582e+06 -7.832708e+05 -7.832708e+05 2.639129e+06 4.823892e+06 4.823892e+06 4.823892e+06 4.972523e+06 4.972523e+06 3.428884e+06 3.428884e+06 3.428884e+06 2.679466e+08 3.200158e+08 3.200158e+08 3.200158e+08 -4.127594e+05 -4.127594e+05 3.976088e+08 3.976088e+08 3.976088e+08 4.616944e+08 4.616944e+08 2.407138e+06 -1.827104e+07 2.769927e+08 2.769927e+08 2.255189e+08 -2.410459e+05 5.263077e+08 4.203747e+08 4.375940e+08 2.416958e+06 4.199733e+05 -5.370757e+07 5.779698e+06 5.779698e+06 6.043216e+06 1.767861e+09 3.868531e+07 3.868531e+07 3.868531e+07 3.026895e+07 1.233751e+08 1.233751e+08 1.233751e+08 1.529734e+08 1.436172e+08 1.436172e+08 2.082281e+09 5.107966e+07 5.107966e+07 5.107966e+07 5.043314e+07 7.843444e+06 1.999038e+09 1.999038e+09 1.999038e+09 1.103763e+08 1.615718e+09 1.615718e+09 8.042827e+08 8.042827e+08 8.042827e+08 8.124471e+07 8.124471e+07 8.124471e+07 1.700948e+08 1.026766e+08 1.026766e+08 1.281951e+08 3.167185e+08 3.774280e+07 1.051475e+08 7.442383e+07 1.049585e+08 3.181227e+07 2.299928e+07 7.134576e+07 2.188140e+07 1.334143e+07 1.811886e+07 1.811886e+07 1.004406e+07 1.004406e+07 1.004406e+07 4.784050e+06 2.173735e+09 1.955574e+08 1.955574e+08 8.467467e+07 5.729854e+07 2.927321e+07 2.927321e+07 1.550966e+09 1.550966e+09 6.357200e+08 6.357200e+08 2.348687e+08 1.584738e+08 4.325221e+07 1.891030e+07 9.221291e+06 9.221291e+06 7.610123e+06 7.963555e+06 1.785995e+09 1.785995e+09 2.634558e+07 1.085388e+07 1.085388e+07 1.675763e+07 1.227208e+07 1.011989e+07 7.328873e+06 7.328873e+06 7.328873e+06 7.333581e+06 7.333581e+06 7.243357e+06 5.966341e+06 5.966341e+06 5.966341e+06 9.917540e+06 9.917540e+06 -6.743701e+05 5.864582e+06 5.864582e+06 6.858552e+06 5.393822e+06 5.393822e+06 3.757729e+05 2.087000e+06 8.352456e+05 5.024078e+06 5.024078e+06 5.024078e+06 5.330872e+06 6.265325e+06 3.233878e+06 5.255588e+06 5.181387e+08 4.627973e+06 4.264424e+06 4.857756e+06 4.553259e+06 5.425249e+08 1.079740e+09 1.079740e+09 1.778361e+09 1.778361e+09 1.820548e+09 1.820548e+09 1.820548e+09 2.456329e+09 2.457313e+09 2.457313e+09 2.457313e+09 -8.538392e+08 4.831604e+06 5.266005e+06 5.266005e+06 5.266005e+06 5.784165e+06 6.450023e+06 6.967187e+06 2.383253e+07 6.247945e+06 7.151120e+06 7.700516e+06 7.470884e+06 9.322101e+06 8.569419e+06 7.077583e+06 5.365291e+06 6.210432e+06 5.521907e+06 5.521907e+06 5.000277e+06 5.000277e+06 6.274537e+06 5.510307e+06 4.930749e+06 4.767712e+06 7.436720e+08 1.047364e+09 2.128913e+09 -1.082152e+10 -3.713226e+10 -4.510795e+10 -4.929407e+10 -5.156870e+10 -5.157094e+10 -4.539193e+10 -4.428187e+10 -4.325855e+10 -4.294218e+10 -3.849165e+10 3.595201e+10 3.831162e+06 3.831162e+06 4.292044e+06 4.292044e+06 4.486372e+06 4.688255e+06 4.995382e+06 4.995382e+06 4.995382e+06 4.928987e+06 4.648587e+06 4.648587e+06 4.257108e+06 4.257108e+06 4.257108e+06 1.113065e+07 1.113065e+07 1.113065e+07 1.346284e+07 1.346284e+07 4.360243e+06 4.360243e+06 4.360243e+06 4.393639e+06 3.831162e+06 3.718435e+06 3.718435e+06 5.000969e+06 8.292481e+06 8.292481e+06 -2.022433e+10 -2.022433e+10 -2.022433e+10 -3.338202e+10 -3.338202e+10 4.637951e+06 5.099638e+06 5.099638e+06 -2.818242e+10 -2.818242e+10 -2.181224e+10 1.662596e+09 1.662596e+09 1.662596e+09 5.717716e+08 5.717716e+08 5.717716e+08 8.250307e+08 8.250307e+08 6.419749e+06 3.051246e+09 3.051246e+09 3.051246e+09 3.144753e+09 -4.013067e+10 -4.013067e+10 -4.013067e+10 -3.105615e+10 -2.140314e+10 -1.071616e+10 -1.071616e+10 -1.071616e+10 -3.365781e+10 -1.087857e+10 -1.087857e+10 -1.087857e+10 -2.278282e+10 1.086896e+09 1.522664e+09 1.086896e+09 1.086896e+09 1.672156e+07 1.672156e+07 3.049225e+06 2.214191e+09 2.214191e+09 -4.042870e+10 -3.849165e+10 -3.258131e+10 -3.258131e+10 -2.278282e+10 -1.215253e+10 -6.850770e+09 -2.093866e+10 -1.694148e+10 -1.004575e+10 -1.004575e+10 -1.651773e+09 -6.610834e+09 -1.272350e+10 -1.651773e+09 -7.572453e+09 1.364816e+09 1.364816e+09 -4.431569e+08 -4.431569e+08 -3.347498e+09 2.419238e+09 2.350550e+09 2.859871e+09 2.859871e+09 3.278096e+09 5.630099e+09 2.964940e+09 2.823424e+09 2.823424e+09 1.522664e+09 7.923405e+08 7.923405e+08 4.943005e+08 4.943005e+08 3.818340e+08 3.148258e+08 1.404084e+08 1.015938e+07 3.049225e+06 3.049225e+06 5.611262e+06 5.611262e+06 5.611262e+06 5.465472e+06 4.665520e+06 6.376287e+06 6.376287e+06 6.376287e+06 6.422299e+06 7.816882e+06 7.816882e+06 7.816882e+06 7.425123e+06 6.910882e+06 2.023925e+07 2.023925e+07 2.023925e+07 2.408070e+07 6.759515e+07 6.759515e+07 6.759515e+07 6.046165e+07 4.952015e+07 2.305855e+07 2.305855e+07 2.038344e+07 1.693332e+08 1.693332e+08 1.693332e+08 1.788466e+08 1.788466e+08 1.150022e+08 1.150022e+08 1.150022e+08 1.180634e+07 1.180634e+07 1.215644e+08 1.215644e+08 1.215644e+08 1.143570e+08 1.143570e+08 8.636937e+08 8.636937e+08 8.636937e+08 3.358413e+08 3.358413e+08 3.358413e+08 6.326980e+07 6.326980e+07 6.326980e+07 1.000631e+07 3.158885e+08 2.720214e+08 9.996947e+07 8.477737e+07 7.854008e+08 4.053315e+08 4.053315e+08 4.840513e+07 4.840513e+07 1.027007e+08 8.172190e+07 2.584304e+08 2.584304e+08 2.584304e+08 9.665432e+08 2.214191e+09 1.270252e+08 3.553531e+07 3.553531e+07 3.553531e+07 2.661094e+08 1.144664e+08 4.503938e+07 2.880850e+07 1.799779e+07 5.868546e+07 1.703007e+07 1.594902e+07 1.784560e+07 1.784560e+07 4.836689e+06 2.178168e+09 2.178168e+09 3.059485e+08 2.866225e+07 2.866225e+07 1.967981e+08 2.960327e+09 1.981640e+07 1.981640e+07 1.101981e+07 1.101981e+07 1.101981e+07 1.565853e+08 4.465149e+08 1.191853e+07 2.366993e+07 1.250642e+07 1.051544e+07 9.275130e+06 9.275130e+06 9.275130e+06 7.979281e+06 7.979281e+06 9.980422e+06 7.941559e+06 7.941559e+06 7.639888e+06 8.060830e+06 6.419749e+06 5.994861e+06 5.994861e+06 5.282708e+06 5.220873e+06 4.103284e+08 1.930725e+09 1.930725e+09 2.746230e+09 2.746230e+09 1.029243e+09 4.529811e+06 3.645730e+07 2.621879e+08 4.285827e+08 4.630544e+08 7.789571e+08 7.789571e+08 1.269607e+09 1.269607e+09 1.269607e+09 1.789636e+09 1.859058e+09 2.211756e+09 3.117682e+09 3.117682e+09 3.215639e+09 -1.659454e+09 1.126980e+07 1.512095e+07 6.645146e+08 3.133030e+09 1.774769e+07 2.210093e+07 1.048270e+07 8.557332e+06 1.206979e+07 8.902901e+06 6.420898e+06 1.530209e+07 6.947281e+06 6.947281e+06 6.266941e+06 6.133662e+06 5.130375e+06 5.160105e+06 5.160105e+06 4.997466e+06 5.940525e+06 5.766589e+06 5.948048e+08 1.215535e+09 2.187967e+09 3.556157e+09 2.094374e+09 2.561405e+09 1.144532e+09 3.244143e+09 2.511665e+09 4.898924e+06 4.292044e+06 -3.713226e+10 -5.834852e+10 -6.609237e+10 -6.472016e+10 -6.092071e+10 -5.254676e+10 -5.026489e+10 -4.380109e+10 -4.220440e+10 -4.241957e+10 -4.483183e+10 -4.695403e+10 -4.360324e+10 -4.806349e+10 -5.336491e+10 -5.275515e+10 -4.112640e+10 -3.854156e+10 -3.910154e+10 -3.430620e+10 -3.211865e+10 -2.579380e+10 -3.261620e+10 -3.224298e+10 -5.021726e+10 -5.297116e+10 -4.019822e+10 -4.188656e+10 -3.760162e+10 -3.136573e+10 -3.566902e+10 -4.065882e+10 -3.984299e+10 -3.851983e+10 -3.169880e+10 -2.509310e+10 -2.861396e+10 -2.450409e+10 -1.062770e+10 -1.449945e+10 -1.786790e+10 -1.779404e+10 -1.749960e+10 -2.049240e+10 -2.472751e+10 -2.348046e+10 -2.078541e+10 -1.770505e+10 -2.047328e+10 -2.280412e+10 -2.497973e+10 -2.592525e+10 -2.331644e+10 -1.640083e+10 -1.735408e+10 -1.544590e+10 -1.598446e+10 -1.848423e+10 -1.895145e+10 -1.937720e+10 -1.822297e+10 -1.292869e+10 -7.159687e+09 -6.456797e+09 -5.201797e+09 -5.634144e+09 -5.875747e+09 -6.644570e+09 -6.450383e+09 -5.387760e+09 -5.417731e+09 -7.101555e+09 -7.658894e+09 -8.246480e+09 -8.428591e+09 -7.337428e+09 -6.410474e+09 -5.017879e+09 -3.849849e+09 -2.716645e+09 -2.896211e+09 -2.394382e+09 -1.526437e+09 -1.572578e+09 -1.353922e+09 -1.148242e+09 -9.844255e+08 -8.561963e+08 -8.336802e+08 -7.136349e+08 -5.685956e+08 -1.692145e+08 -8.267861e+07 2.064194e+08 2.934255e+08 4.135366e+08 1.127691e+09 2.011488e+09 2.888099e+09 1.362188e+09 -1.050413e+10 5.890251e+09 2.993755e+09 1.079738e+08 -4.680879e+08 -1.455427e+09 -1.685048e+09 -2.014727e+09 -2.141893e+09 -2.153910e+09 -1.886625e+09 -2.335918e+09 -2.493998e+09 -2.612113e+09 -2.612940e+09 -2.254888e+09 -3.041882e+09 -3.573693e+09 -3.897486e+09 -4.182347e+09 -4.549462e+09 -4.472908e+09 -5.711710e+09 -5.711710e+09 1.599716e+06 1.599716e+06 3.931413e+06 4.071783e+06 4.307378e+06 4.553259e+06 4.784050e+06 4.784050e+06 4.837782e+06 4.997466e+06 5.130375e+06 5.130375e+06 5.757850e+06 5.757850e+06 6.420898e+06 6.910882e+06 7.107933e+06 7.800291e+06 8.557332e+06 1.126980e+07 1.126980e+07 1.512095e+07 1.512095e+07 1.774769e+07 2.579137e+07 2.866225e+07 3.645730e+07 4.008365e+07 5.686883e+07 7.041828e+07 8.477737e+07 1.148277e+08 1.250821e+08 1.788466e+08 2.647316e+08 3.408937e+08 4.285827e+08 4.285827e+08 5.177852e+08 9.171377e+08 9.171377e+08 1.507242e+09 1.779901e+09 1.779901e+09 2.178168e+09 2.211756e+09 2.211756e+09 3.117682e+09 3.133030e+09 2.578268e+09 2.578268e+09 3.502159e+09 -6.850770e+09 -1.215253e+10 -2.240525e+10 -2.960913e+10 -3.094966e+06 1.414438e+07 1.414438e+07 1.414438e+07 1.594787e+07 1.709531e+07 1.709531e+07 1.709531e+07 1.307111e+07 1.307111e+07 2.082609e+07 2.082609e+07 2.082609e+07 2.265848e+07 2.152413e+07 -4.127594e+05 1.215928e+07 1.215928e+07 1.049041e+07 1.541479e+07 1.541479e+07 1.541479e+07 1.422042e+07 1.282350e+07 -1.026163e+09 -1.026163e+09 -1.026163e+09 -2.948284e+08 3.112122e+06 3.112122e+06 3.112122e+06 2.717167e+06 2.262873e+06 2.262873e+06 1.221314e+07 1.221314e+07 1.119941e+07 8.216732e+06 -3.094966e+06 -3.094966e+06 4.350536e+06 4.350536e+06 4.350536e+06 4.128295e+06 3.733023e+06 3.733023e+06 4.074813e+06 3.416378e+07 3.416378e+07 3.416378e+07 3.291049e+07 2.781458e+07 3.371383e+07 2.714396e+07 -5.815395e+08 -5.815395e+08 -5.815395e+08 -6.952292e+08 -2.076193e+08 4.719903e+07 4.384056e+07 4.719903e+07 2.764634e+08 2.764634e+08 2.764634e+08 9.053361e+08 9.053361e+08 9.053361e+08 7.156144e+08 4.111556e+08 6.029202e+08 4.111556e+08 4.111556e+08 7.654122e+08 7.654122e+08 7.654122e+08 7.793594e+08 1.644040e+09 1.644040e+09 1.644040e+09 2.008385e+09 7.274947e+08 7.274947e+08 7.274947e+08 2.073097e+09 2.073097e+09 -3.637803e+08 -3.637803e+08 -3.637803e+08 -2.951225e+08 5.748463e+08 5.748463e+08 5.748463e+08 -1.176341e+08 -1.176341e+08 9.854084e+08 9.854084e+08 9.854084e+08 -9.809572e+08 3.496870e+05 3.496870e+05 3.496870e+05 1.286131e+08 1.286131e+08 -3.822964e+06 -5.561526e+07 -6.067650e+09 -6.067650e+09 -6.067650e+09 -4.507728e+09 -1.954073e+10 -1.954073e+10 -1.954073e+10 -2.608673e+10 -2.608673e+10 -2.991770e+09 -2.991770e+09 -2.991770e+09 -1.998697e+09 -1.536921e+10 -1.536921e+10 -1.536921e+10 -1.069570e+10 -2.612113e+09 -5.341605e+09 -5.341605e+09 -5.341605e+09 -6.175103e+09 -6.175103e+09 -6.175103e+09 -7.777102e+09 -1.177824e+09 -1.177824e+09 -1.177824e+09 -1.473586e+09 2.011488e+09 1.103539e+10 1.103539e+10 1.103539e+10 5.777489e+09 -3.199438e+08 -3.199438e+08 -3.199438e+08 -1.313869e+08 -1.313869e+08 -5.561526e+07 -5.561526e+07 -3.822964e+06 1.857089e+09 1.857089e+09 1.857089e+09 8.851055e+08 8.851055e+08 1.939265e+08 2.940800e+08 2.940800e+08 1.884562e+09 1.884562e+09 1.884562e+09 2.075984e+09 2.075984e+09 1.584047e+09 1.584047e+09 1.584047e+09 1.759815e+09 9.824488e+07 1.761159e+08 9.824488e+07 9.824488e+07 3.619991e+07 -5.159045e+07 -5.159045e+07 -5.159045e+07 8.517746e+05 4.100537e+07 5.685846e+07 5.685846e+07 1.461349e+09 1.461349e+09 -2.130007e+08 -2.130007e+08 3.415963e+07 3.415963e+07 3.415963e+07 4.552829e+07 4.552829e+07 -9.453051e+06 -9.453051e+06 -9.453051e+06 -2.152421e+05 -1.985468e+07 -