<?xml version="1.0"?>
 <VTKFile type="UnstructuredGrid" version="1.0" byte_order="LittleEndian" header_type="UInt64">
  <UnstructuredGrid>
    <FieldData>
     <DataArray type="Float64" Name="TimeValue" NumberOfTuples="1" format="ascii">
3e-06
     </DataArray>
    </FieldData>
   <Piece NumberOfPoints="3632" NumberOfCells="3379">
    <PointData>
     <DataArray type="Float64" Name="pointP" format="ascii">
-3.206612e+10 -3.206612e+10 -2.815296e+10 -2.495576e+10 -3.186305e+10 -3.159622e+10 -2.915661e+10 -2.878117e+10 -4.001855e+10 -4.177722e+10 -4.088824e+10 -3.596451e+10 -2.993328e+10 -3.110971e+10 -3.040624e+10 -2.619355e+10 -2.707954e+10 -3.230999e+10 -3.647991e+10 -3.850017e+10 -3.593088e+10 -3.792165e+10 -3.852909e+10 -3.798306e+10 -3.435703e+10 -3.333222e+10 -3.957821e+10 -3.781391e+10 -3.196048e+10 -2.885033e+10 -3.208673e+10 -3.135265e+10 -2.350595e+10 -1.495562e+10 -2.264130e+10 -2.634654e+10 -2.631702e+10 -2.301721e+10 -2.219173e+10 -2.481273e+10 -2.344213e+10 -2.352913e+10 -2.037382e+10 -2.038845e+10 -1.918504e+10 -1.830921e+10 -1.544618e+10 -1.170354e+10 -1.216530e+10 -1.423945e+10 -1.439283e+10 -1.465689e+10 -1.388705e+10 -1.215267e+10 -7.786282e+09 -7.221231e+09 -6.497852e+09 -6.962356e+09 -6.664622e+09 -6.570091e+09 -6.644207e+09 -5.782640e+09 -4.739703e+09 -5.019918e+09 -4.872645e+09 -4.004898e+09 -2.748447e+09 -3.075639e+09 -3.202885e+09 -2.950926e+09 -2.392030e+09 -2.458876e+09 -2.216507e+09 -1.700468e+09 -1.012015e+09 -1.030327e+09 -8.735455e+08 -8.176936e+08 -6.553612e+08 -4.936558e+08 -5.576328e+06 1.058024e+07 3.208542e+08 8.324515e+08 8.704106e+08 -4.252207e+07 3.507293e+08 1.175938e+09 1.161205e+09 2.658557e+09 1.628693e+09 -4.377602e+08 -1.786082e+09 -9.831839e+08 -2.634542e+08 -4.058743e+08 -6.821520e+08 -9.181513e+08 -9.268867e+08 -2.083858e+09 -2.625320e+09 -2.761952e+09 -2.843577e+09 -4.506665e+09 -5.388894e+09 -5.388130e+09 -5.525551e+09 -5.945097e+09 -6.486632e+09 -6.620759e+09 -6.069509e+09 -5.364525e+09 -4.420266e+09 -5.649492e+09 -7.312040e+09 -7.542818e+09 -8.222888e+09 -8.893734e+09 -7.874420e+09 -1.214045e+10 -1.415614e+10 -1.598997e+10 -1.655662e+10 -1.722925e+10 -1.426248e+10 -1.636195e+10 -1.917227e+10 -2.056124e+10 -2.233203e+10 -2.285799e+10 -1.849527e+10 -1.731474e+10 -2.283474e+10 -2.370256e+10 -2.127409e+10 -2.278879e+10 -2.517986e+10 -2.277299e+10 -2.126851e+10 -2.307783e+10 -2.073167e+10 -2.892493e+10 -3.445254e+10 -3.656615e+10 -3.644061e+10 -3.922020e+10 -3.754908e+10 -4.077605e+10 -3.886746e+10 -3.543680e+10 -2.571953e+10 -2.634199e+10 -2.993460e+10 -2.776644e+10 -3.128035e+10 -2.947767e+10 -2.476831e+10 -2.440083e+10 -2.794398e+10 -3.469036e+10 -3.040899e+10 -3.617036e+10 -3.707349e+10 -3.279486e+10 -3.090311e+10 -2.756786e+10 -2.703755e+10 -3.259555e+10 -2.977498e+10 -2.837213e+10 -4.489583e+10 -5.259318e+10 -5.567596e+10 -5.786454e+10 -5.931429e+10 -5.698510e+10 -5.092843e+10 -4.379361e+10 -5.278891e+10 -6.602571e+10 -2.255564e+08 -2.128838e+08 -2.128838e+08 -2.128838e+08 3.632194e+07 3.632194e+07 3.632194e+07 1.638190e+07 1.021804e+07 4.188736e+06 2.212957e+06 8.048541e+06 8.048541e+06 8.048541e+06 7.431492e+06 -6.362542e+06 -6.362542e+06 -6.362542e+06 -6.201786e+06 -6.179224e+06 2.063614e+09 2.063614e+09 2.063614e+09 1.920706e+09 2.188914e+09 2.188914e+09 2.188914e+09 1.999346e+09 -2.347832e+08 -2.347832e+08 -2.347832e+08 -3.868606e+08 -7.682272e+08 -8.871820e+08 2.037882e+09 2.037882e+09 2.037882e+09 1.946122e+09 1.946122e+09 7.963692e+08 7.963692e+08 7.963692e+08 1.238930e+09 2.972689e+08 2.972689e+08 2.972689e+08 -1.701409e+09 -1.701409e+09 -8.410562e+09 -8.410562e+09 -8.410562e+09 -6.529853e+08 -6.529853e+08 -6.529853e+08 -6.891780e+08 -1.390079e+08 -1.390079e+08 -1.390079e+08 -8.830742e+09 -8.830742e+09 -8.830742e+09 -1.315076e+10 -1.851100e+10 -1.851100e+10 -1.350877e+10 -1.350877e+10 -2.323011e+09 -2.323011e+09 -2.103121e+09 -4.434697e+09 -4.434697e+09 -4.434697e+09 -8.644576e+09 -8.644576e+09 -1.121916e+10 -1.121916e+10 -1.121916e+10 -6.048589e+09 -6.048589e+09 -1.168965e+07 -1.168965e+07 -1.168965e+07 -1.201602e+07 -1.201602e+07 2.488808e+09 2.488808e+09 -7.184798e+08 -7.184798e+08 -7.184798e+08 -4.798838e+08 8.720915e+08 8.720915e+08 8.720915e+08 7.958392e+08 6.510401e+08 -2.289474e+09 -2.289474e+09 -2.289474e+09 -1.481377e+09 -1.481377e+09 -1.351923e+09 -2.634654e+10 -1.591225e+10 -1.591225e+10 -5.786454e+10 -4.148363e+10 -4.148363e+10 7.260306e+08 -1.426248e+10 -1.437461e+10 5.602599e+06 -1.169329e+08 -1.169329e+08 -1.169329e+08 -8.217366e+07 -6.526291e+06 9.997807e+10 9.997807e+10 9.997807e+10 -8.463910e+09 -8.463910e+09 1.408298e+07 1.408298e+07 1.408298e+07 -8.759294e+06 2.809433e+08 2.809433e+08 2.809433e+08 2.616143e+08 1.561866e+09 1.372283e+09 1.114701e+09 2.045967e+09 2.045967e+09 -1.861827e+09 -1.861827e+09 -1.861827e+09 -2.326025e+09 8.030832e+08 8.030832e+08 8.030832e+08 8.297958e+08 8.297958e+08 7.402587e+08 1.188053e+09 1.188053e+09 1.188053e+09 1.197255e+09 7.383517e+08 7.383517e+08 7.383517e+08 6.526736e+08 6.185827e+08 3.617288e+08 3.617288e+08 3.617288e+08 3.644400e+08 2.752166e+09 3.905479e+09 2.183321e+08 2.183321e+08 2.183321e+08 1.754975e+08 1.728002e+09 1.728002e+09 1.728002e+09 1.757842e+09 1.306760e+09 1.306760e+09 1.306760e+09 1.339867e+09 1.339867e+09 -2.927791e+09 -2.927791e+09 -2.927791e+09 -1.589741e+09 -3.252729e+09 -3.252729e+09 -3.252729e+09 -2.179772e+09 -1.176531e+10 -1.176531e+10 -1.176531e+10 -1.478128e+10 -8.492976e+09 -8.492976e+09 -1.149782e+10 6.532273e+08 6.532273e+08 1.486412e+08 1.486412e+08 1.486412e+08 -5.091390e+09 -5.091390e+09 -5.091390e+09 2.547352e+09 -3.710203e+10 -3.710203e+10 -3.710203e+10 -4.327210e+10 -4.327210e+10 -2.704492e+10 -2.704492e+10 -2.704492e+10 -2.525160e+10 -2.525160e+10 3.718053e+08 -6.274581e+09 -6.274581e+09 -5.551575e+09 -4.024452e+10 -4.024452e+10 -4.024452e+10 -5.157259e+10 -2.393394e+10 -2.393394e+10 -2.059328e+10 -2.059328e+10 -2.165535e+10 -2.165535e+10 -1.854764e+10 -1.006069e+10 -1.006069e+10 -2.505888e+10 -2.505888e+10 -2.081364e+10 -2.081364e+10 -1.077062e+10 -1.077062e+10 -1.077062e+10 -1.019781e+10 2.317911e+08 -1.715905e+09 -6.229090e+08 -6.229090e+08 -6.229090e+08 -8.798459e+08 -1.079473e+09 -1.079473e+09 -1.079473e+09 -1.001105e+09 -1.001105e+09 -1.005901e+10 -1.005901e+10 -1.005901e+10 -1.043047e+10 -1.043047e+10 -1.029089e+09 -8.062154e+08 -8.848528e+09 -8.848528e+09 -8.848528e+09 -8.510882e+09 -1.026440e+09 -1.026440e+09 -1.026440e+09 -3.642947e+09 -3.642947e+09 -4.949054e+08 -4.466027e+08 2.722416e+08 2.722416e+08 2.722416e+08 1.529132e+08 1.529132e+08 -1.231639e+09 -1.418356e+09 -1.418356e+09 1.385266e+09 1.385266e+09 1.385266e+09 1.676038e+09 1.676038e+09 1.077431e+09 1.077431e+09 1.077431e+09 9.408206e+08 9.408206e+08 1.338019e+09 1.338019e+09 1.899089e+09 1.899089e+09 -1.425617e+07 -1.425617e+07 -1.711155e+08 2.810092e+09 2.810092e+09 2.585025e+09 2.585025e+09 1.409259e+09 1.409259e+09 1.409259e+09 1.255324e+09 5.856861e+07 5.856861e+07 5.856861e+07 8.956336e+07 8.956336e+07 7.751560e+08 1.280209e+09 1.588227e+08 -2.807992e+06 -2.807992e+06 -2.807992e+06 -1.007687e+06 -1.007687e+06 5.993388e+06 5.993388e+06 6.276845e+06 -4.582674e+06 -4.582674e+06 -8.428120e+07 -5.495256e+07 1.695587e+06 1.695587e+06 1.695587e+06 -1.298650e+08 -1.298650e+08 -1.298650e+08 2.320658e+07 2.320658e+07 2.320658e+07 -1.794510e+06 -7.597914e+06 -5.830386e+09 -2.247022e+07 -2.247022e+07 -2.247022e+07 -1.029482e+08 6.387567e+07 6.387567e+07 6.387567e+07 2.975932e+08 2.975932e+08 2.975932e+08 2.432687e+08 6.019900e+08 6.019900e+08 6.019900e+08 1.360773e+08 1.360773e+08 1.360773e+08 1.443700e+08 1.443700e+08 1.443700e+08 1.428714e+09 1.428714e+09 1.397955e+09 1.607939e+09 8.547424e+08 8.547424e+08 2.284517e+09 2.284517e+09 2.284517e+09 2.315373e+09 2.315373e+09 -3.812801e+09 -3.812801e+09 -1.048622e+09 1.260688e+07 3.905479e+09 2.943618e+09 2.943618e+09 2.943618e+09 3.070328e+09 5.435318e+08 5.435318e+08 5.435318e+08 -1.458825e+09 -1.406372e+09 -3.121071e+09 6.509215e+07 6.509215e+07 6.509215e+07 -2.375645e+09 -2.375645e+09 -2.375645e+09 -1.668903e+09 -2.311918e+09 3.348446e+08 3.348446e+08 3.348446e+08 -1.763358e+09 -1.763358e+09 -1.763358e+09 -1.028404e+09 -2.605984e+08 -2.605984e+08 -2.605984e+08 2.124035e+08 -5.856161e+09 -5.856161e+09 -5.856161e+09 -1.150509e+09 -3.075076e+08 -3.075076e+08 -3.070272e+09 -3.070272e+09 -3.070272e+09 -3.052173e+09 -5.681773e+09 -1.944160e+10 -1.944160e+10 -1.461138e+10 -3.390938e+10 -3.471965e+10 -2.443293e+09 -2.443293e+09 -8.411663e+09 -8.411663e+09 -8.411663e+09 -6.626986e+09 -2.130845e+10 -2.130845e+10 -2.130845e+10 -1.813500e+10 -5.019918e+09 -3.760261e+09 -3.760261e+09 -4.464756e+09 -4.464756e+09 -4.464756e+09 -3.410526e+09 -2.703207e+10 -2.059325e+09 -2.059325e+09 -1.630540e+09 -6.384653e+09 -6.384653e+09 -6.384653e+09 -2.896227e+10 -2.896227e+10 -2.005238e+10 -2.005238e+10 -2.005238e+10 -3.306692e+10 -2.036654e+10 -2.036654e+10 -2.036654e+10 -2.267402e+10 -2.267402e+10 -3.172818e+10 -1.280432e+10 -1.280432e+10 -4.363471e+08 -2.089229e+10 -2.089229e+10 -2.120223e+10 -4.389923e+09 -9.133724e+09 -1.804456e+10 -9.133724e+09 -9.133724e+09 -3.940711e+09 -3.940711e+09 -3.940711e+09 -2.345826e+09 -2.345826e+09 1.648023e+08 1.648023e+08 -1.690841e+09 -1.690841e+09 -2.933961e+07 -2.933961e+07 -2.933961e+07 -1.143416e+08 -1.143416e+08 2.976121e+09 2.976121e+09 2.976121e+09 1.890430e+09 1.890430e+09 2.947462e+09 2.947462e+09 2.947462e+09 2.542687e+09 2.542687e+09 4.692653e+08 4.692653e+08 4.692653e+08 -2.047381e+08 3.136087e+09 3.136087e+09 3.136087e+09 2.563192e+09 2.563192e+09 1.884115e+09 1.884115e+09 1.884115e+09 1.482105e+09 1.482105e+09 5.941440e+08 5.941440e+08 5.941440e+08 4.166417e+08 4.166417e+08 1.220006e+09 1.220006e+09 1.220006e+09 1.484490e+07 1.484490e+07 1.484490e+07 5.178045e+07 5.178045e+07 9.878958e+07 3.086459e+07 6.857627e+07 6.857627e+07 6.857627e+07 1.112633e+08 -2.207117e+09 -2.207117e+09 -4.721729e+09 -6.630797e+07 -6.630797e+07 -1.064553e+09 -1.064553e+09 -3.017909e+07 -1.380205e+08 2.283437e+07 1.320662e+07 2.283437e+07 2.283437e+07 4.188736e+06 4.188736e+06 1.156079e+08 7.259496e+07 7.348782e+07 2.414838e+09 2.414838e+09 2.414838e+09 2.445031e+09 2.503940e+09 2.770219e+08 2.770219e+08 2.770219e+08 3.171300e+08 1.913576e+09 1.211594e+09 -1.477675e+10 -1.477675e+10 -1.477675e+10 -1.502385e+10 -3.585966e+09 -5.158848e+09 -6.096591e+09 -7.983915e+09 -7.983915e+09 -5.296440e+09 -2.172754e+10 -1.977953e+10 -1.977953e+10 -1.720866e+10 -1.198668e+10 -1.739252e+10 -1.272157e+10 -1.002206e+10 -4.751025e+09 -4.751025e+09 -4.751025e+09 -3.852169e+09 -2.665671e+10 -2.665671e+10 -2.665671e+10 -3.441733e+10 -4.650582e+09 -3.754908e+10 -2.713769e+10 -2.713769e+10 -2.290679e+09 -2.290679e+09 -2.290679e+09 -5.751426e+09 -3.021676e+10 -3.021676e+10 -2.908188e+09 -2.908188e+09 -2.908188e+09 -4.132244e+09 -2.665672e+10 -2.665672e+10 -3.580277e+09 -3.686200e+09 -3.686200e+09 -3.686200e+09 -3.475799e+09 -2.089950e+10 -4.302110e+10 -4.302110e+10 -3.051922e+10 -2.476831e+10 -4.866349e+09 -4.866349e+09 -1.958327e+10 -1.958327e+10 -1.958327e+10 -2.902658e+10 -1.852677e+10 -1.710023e+10 -1.710023e+10 -2.488926e+09 -2.014222e+10 -2.014222e+10 -1.907916e+10 -1.778742e+10 -1.778742e+10 -1.565550e+10 -5.994854e+09 -1.214045e+10 -8.361885e+09 -8.361885e+09 -3.902769e+10 -3.902769e+10 -1.146199e+10 -3.279167e+10 -3.279167e+10 -6.087453e+09 -6.087453e+09 -6.087453e+09 -7.515275e+09 -1.484059e+10 -1.484059e+10 -1.624301e+10 -1.624301e+10 -1.935329e+10 -3.631360e+10 -8.012365e+08 -1.003430e+09 -3.644061e+10 -2.772281e+10 -2.772281e+10 1.175938e+09 1.870340e+08 1.870340e+08 -2.843821e+10 -2.843821e+10 -2.251702e+10 -2.251702e+10 -1.227556e+10 -1.455900e+09 -2.952221e+10 -2.952221e+10 -2.290319e+10 -2.918150e+10 -2.918150e+10 -2.344213e+10 -1.846016e+10 -4.664710e+09 -4.664710e+09 -4.664710e+09 -2.653941e+10 -2.653941e+10 -2.653941e+10 -2.809036e+10 -6.057087e+09 -6.057087e+09 -5.926797e+09 -1.860871e+10 -1.860871e+10 -3.301779e+09 -1.349755e+10 -2.206927e+09 -2.206927e+09 -2.206927e+09 -2.566803e+10 -2.566803e+10 -2.037382e+10 -1.465389e+10 -1.465389e+10 -6.553612e+08 -6.684673e+08 1.058024e+07 -2.681564e+06 -2.829752e+10 -2.437147e+10 -2.437147e+10 -1.801083e+10 -1.801083e+10 -1.801083e+10 -1.637919e+10 -2.165221e+10 -2.032556e+10 -4.076569e+09 -4.076569e+09 -5.698819e+09 -8.055942e+09 -8.055942e+09 -2.509620e+10 -2.509620e+10 -3.368756e+10 -4.004898e+09 -3.171483e+09 -3.171483e+09 -1.317970e+09 -2.935930e+10 -2.935930e+10 -2.194128e+10 -2.194128e+10 -5.549425e+08 -5.549425e+08 -5.549425e+08 -1.715795e+10 -1.715795e+10 -1.715795e+10 -1.675156e+08 -1.675156e+08 -1.150017e+10 -2.941685e+10 -2.162965e+10 -1.609055e+10 -1.814225e+10 -2.660776e+10 -1.704239e+10 -7.412770e+08 -6.665632e+08 -1.546376e+10 -1.546376e+10 -8.920132e+09 -4.140864e+09 -1.902028e+10 -1.762131e+10 -8.035661e+08 -8.035661e+08 -3.206612e+10 -3.424330e+10 -1.724560e+10 -1.724560e+10 -1.724560e+10 -2.520604e+10 -2.024414e+10 -9.697607e+09 -2.900126e+10 -2.319641e+10 -4.412667e+08 -4.412667e+08 -2.098262e+08 -1.420089e+10 -1.584725e+10 -2.115003e+10 -7.462083e+09 -2.439794e+09 -2.439794e+09 -2.439794e+09 -1.733024e+09 -3.015235e+09 -3.015235e+09 -3.015235e+09 -3.758997e+10 -2.419267e+10 -1.371453e+10 -8.534846e+09 -8.962515e+09 -2.802500e+09 -6.656971e+09 -1.195017e+10 -1.414894e+10 -8.852560e+09 -8.852560e+09 -1.445455e+09 -4.044443e+09 -1.587925e+10 -1.951575e+10 -7.105866e+09 -2.956622e+09 -2.956622e+09 -1.518650e+10 -1.518650e+10 -9.280759e+09 -9.280759e+09 -4.660444e+09 -5.695898e+09 -5.381863e+09 -4.122449e+10 -2.446410e+10 -2.087192e+10 -1.910937e+09 -3.445635e+10 8.101649e+10 8.101649e+10 -1.554133e+10 -1.554133e+10 -8.228556e+09 -8.228556e+09 -1.804878e+09 -1.191093e+09 -5.348930e+09 -5.348930e+09 -9.074878e+09 -1.506594e+09 -1.506594e+09 -1.589455e+09 -1.589455e+09 -3.635006e+09 -3.635006e+09 -1.398424e+10 -5.157021e+09 -5.157021e+09 -4.379801e+09 -4.379801e+09 -4.379801e+09 -4.598417e+09 -1.464985e+10 -1.464985e+10 -9.173488e+09 -9.173488e+09 -1.051448e+10 -9.691376e+09 -1.043776e+10 -1.935400e+10 -3.673791e+10 -9.435940e+09 -9.435940e+09 -5.359057e+08 -5.359057e+08 -3.969779e+08 -1.108544e+10 -1.108544e+10 -9.633695e+09 -9.633695e+09 -1.259628e+10 -1.259628e+10 -5.381720e+08 -2.190087e+10 -1.902421e+09 -1.902421e+09 -1.799996e+09 -1.324467e+10 -1.456631e+10 -1.650924e+10 -8.108103e+09 -5.920011e+09 -2.296446e+10 -2.068691e+10 -1.367622e+09 -1.367622e+09 -1.367622e+09 1.060518e+10 1.060518e+10 1.060518e+10 2.415687e+08 -1.502019e+09 -1.502019e+09 -1.502019e+09 -2.456948e+09 -1.788634e+10 -1.488543e+10 -5.843912e+09 -2.656869e+09 -2.656869e+09 -1.027448e+09 -1.027448e+09 -1.027448e+09 -2.803245e+09 -1.673316e+10 -1.600478e+10 -1.346947e+10 -1.346947e+10 -1.043170e+10 7.350928e+10 -6.807871e+09 -6.807871e+09 -4.208380e+09 -2.206297e+09 -2.206297e+09 -5.223772e+09 -3.309904e+10 -3.759829e+09 -2.633164e+09 -9.398194e+09 -3.046122e+07 -5.601974e+07 -2.406522e+10 -7.098014e+08 -7.098014e+08 -7.098014e+08 -5.811197e+09 -5.811197e+09 -8.098221e+09 -3.638715e+09 -3.638715e+09 -1.172075e+10 -1.009475e+10 -3.970206e+09 -6.444614e+09 -9.921573e+09 -9.921573e+09 -9.921573e+09 -9.842073e+09 -4.555560e+09 -4.555560e+09 -5.592439e+09 -4.673434e+09 -4.673434e+09 -1.729181e+08 -1.729181e+08 -1.729181e+08 -4.566916e+08 -1.611312e+09 -5.627148e+09 -5.627148e+09 -5.627148e+09 -8.227567e+09 -1.470655e+10 -6.171522e+09 -6.171522e+09 -3.242241e+09 -3.242241e+09 -7.722790e+09 -5.418496e+09 -5.418496e+09 -3.632541e+08 -4.106226e+08 -1.766490e+09 -1.766490e+09 -6.932732e+09 -4.854226e+09 -1.292572e+10 -1.804456e+10 -9.393467e+09 -3.403442e+09 -2.560293e+09 -4.601666e+09 -5.852350e+08 -5.852350e+08 -1.539206e+08 -1.539206e+08 -2.669578e+09 -1.025990e+09 -9.247000e+08 -1.417084e+09 -1.740879e+09 -3.697021e+09 -8.154531e+08 -2.178972e+09 -2.178972e+09 -5.785354e+09 -5.785354e+09 -5.785354e+09 -3.185146e+09 -3.927116e+09 -3.927116e+09 -4.843706e+09 -3.828504e+08 -6.860308e+07 -1.523784e+09 -9.483377e+09 -1.322326e+10 -1.322326e+10 -1.322326e+10 -1.105817e+10 -1.191899e+09 -2.815296e+10 -8.763097e+09 -6.184688e+09 -6.184688e+09 -7.378106e+09 -7.378106e+09 -7.378106e+09 -8.434641e+09 -2.239238e+09 -2.239238e+09 -4.168634e+09 -4.168634e+09 -4.019036e+09 -1.370868e+09 -6.448710e+08 -6.862977e+09 -1.345470e+09 -8.202152e+08 -1.949035e+09 -2.081373e+09 -7.746797e+09 -3.558913e+08 -3.558913e+08 -3.558913e+08 -8.924274e+07 -6.475421e+09 -1.383285e+09 -7.126765e+08 -6.581718e+09 -5.809259e+09 -5.700503e+09 -7.262478e+09 -3.411191e+09 -3.411191e+09 -9.193503e+08 -1.411813e+09 -1.411813e+09 -3.299480e+08 -2.425910e+09 -2.425910e+09 -9.191169e+08 -5.810858e+09 -5.810858e+09 -9.428411e+09 -2.767430e+09 -5.456475e+09 -5.456475e+09 -8.605877e+08 -4.613084e+08 -4.613084e+08 -5.161110e+08 -6.686195e+09 -5.491543e+09 -4.241385e+09 2.777364e+08 2.777364e+08 1.220433e+11 -1.200555e+09 -4.474474e+08 -6.870301e+07 -2.200120e+07 7.508503e+08 7.508503e+08 7.162514e+08 7.162514e+08 7.162514e+08 2.733373e+07 1.357635e+08 4.207966e+07 1.107501e+09 1.107501e+09 5.675030e+10 4.323528e+10 4.323528e+10 -3.351855e+08 1.675361e+08 1.339851e+08 -8.105777e+09 3.960987e+08 3.960987e+08 3.960987e+08 -3.055296e+09 -3.919478e+09 -1.023765e+09 -1.679366e+08 -5.800222e+07 -9.463531e+08 -9.463531e+08 -9.463531e+08 -1.808939e+08 -1.808939e+08 -1.808939e+08 -4.136042e+08 -3.734921e+08 -1.228555e+10 -3.561889e+09 -1.834919e+09 -2.033471e+08 -2.033471e+08 -4.907153e+09 -1.355672e+09 -1.069032e+08 -1.069032e+08 2.363563e+07 -2.109004e+08 -2.109004e+08 -9.887863e+07 -3.040364e+08 -3.040364e+08 -4.736519e+08 4.408282e+07 4.408282e+07 -4.856383e+08 9.506716e+08 9.506716e+08 7.610137e+08 7.610137e+08 1.647129e+09 1.647129e+09 1.647129e+09 -3.380967e+09 1.743009e+08 1.743009e+08 2.664774e+08 2.664774e+08 2.664774e+08 -3.367296e+09 -3.040476e+09 -5.321273e+08 -1.154538e+09 -1.154538e+09 2.094891e+08 3.204598e+08 3.204598e+08 3.204598e+08 4.385803e+08 4.385803e+08 1.957871e+08 -8.004936e+07 -8.004936e+07 2.630435e+07 -2.943274e+09 3.959396e+08 3.959396e+08 1.034063e+09 2.228765e+09 4.066081e+08 4.066081e+08 4.066081e+08 -3.720272e+09 1.477438e+09 1.477438e+09 1.292071e+09 1.292071e+09 -2.500670e+08 -2.500670e+08 1.908518e+09 1.908518e+09 -3.389425e+09 -3.389425e+09 -3.633215e+09 1.144289e+08 1.879377e+08 -3.533705e+08 1.664638e+09 1.664638e+09 1.664638e+09 -1.333700e+07 3.445884e+08 -3.327001e+09 -2.175203e+08 -4.322870e+08 -2.420200e+09 7.796352e+08 7.796352e+08 5.997830e+08 2.797463e+09 2.797463e+09 2.589275e+07 1.297396e+08 2.071771e+09 2.071771e+09 2.659748e+09 9.068605e+08 9.068605e+08 -1.489091e+08 1.453346e+09 -2.917469e+09 2.674644e+08 1.050256e+09 2.290208e+09 2.290208e+09 -1.188530e+08 5.096457e+07 1.912972e+08 8.284385e+08 -1.595089e+09 3.228822e+08 3.228822e+08 5.402263e+08 5.402263e+08 -1.548900e+10 1.868782e+09 2.274920e+09 2.274920e+09 1.261813e+09 6.243862e+08 7.974253e+08 4.213389e+08 4.213389e+08 4.213389e+08 4.133438e+08 4.133438e+08 3.448101e+06 1.622419e+09 4.773901e+08 1.291334e+09 1.291334e+09 1.797518e+08 1.797518e+08 1.909901e+08 2.135865e+08 2.135865e+08 2.618367e+09 2.618367e+09 2.618367e+09 3.045111e+09 3.045111e+09 2.859041e+08 2.859041e+08 4.622463e+08 6.163492e+08 7.157188e+08 7.157188e+08 7.157188e+08 1.726431e+09 9.316178e+08 1.067977e+09 1.067977e+09 -1.758167e+09 6.479041e+08 1.260688e+07 2.931930e+09 2.307313e+09 2.784236e+08 2.629036e+08 2.228765e+09 2.072300e+09 2.072300e+09 1.771058e+09 1.771058e+09 2.151353e+09 2.276105e+09 2.687791e+09 9.533721e+08 1.749749e+09 1.749749e+09 2.020020e+09 2.831060e+09 1.928950e+09 6.894914e+08 -7.824366e+07 1.788258e+09 1.633395e+09 2.653040e+09 2.653040e+09 2.767899e+09 2.767899e+09 5.024495e+08 5.254888e+10 5.254888e+10 5.254888e+10 5.303568e+08 1.878417e+09 -3.909565e+08 2.124847e+09 2.899949e+09 1.044670e+09 3.180180e+09 2.253021e+09 1.790974e+09 2.636682e+09 2.636682e+09 2.636682e+09 1.300413e+09 6.117811e+08 3.319030e+09 1.923097e+09 1.923097e+09 1.640942e+09 2.130575e+08 -8.694938e+07 -8.694938e+07 2.674784e+09 5.637609e+08 6.957677e+08 3.151188e+09 1.917783e+08 1.917783e+08 1.919528e+08 2.066508e+09 3.199275e+09 3.199275e+09 2.095673e+09 1.233651e+09 1.233651e+09 1.233651e+09 2.226303e+08 2.761556e+08 5.033221e+06 4.200136e+08 4.591325e+08 4.591325e+08 7.934225e+08 1.819269e+09 1.121588e+09 1.121588e+09 2.031260e+09 1.094730e+09 1.094730e+09 1.094730e+09 1.256298e+09 3.037002e+09 3.388702e+08 2.818503e+09 2.841534e+09 -1.596892e+09 9.404767e+08 9.944157e+08 2.841621e+09 2.770285e+08 3.152415e+08 2.752166e+09 2.722571e+08 2.054662e+09 2.054662e+09 2.054662e+09 3.033768e+09 3.254569e+09 1.844743e+09 2.837438e+09 3.033768e+09 2.742080e+09 2.682273e+09 1.405575e+09 6.521717e+08 4.745326e+08 1.434063e+08 2.251869e+09 2.251869e+09 2.251869e+09 9.563302e+08 2.557727e+09 2.557727e+09 2.279874e+09 2.279874e+09 2.010890e+08 3.119504e+09 2.612589e+09 9.865798e+07 9.865798e+07 9.865798e+07 2.038469e+08 2.339497e+09 2.339497e+09 -1.022126e+07 5.996170e+07 7.029583e+08 2.584742e+09 1.871857e+09 1.871857e+09 1.871857e+09 2.518054e+09 2.518054e+09 2.518054e+09 3.145016e+09 5.268686e+07 2.579243e+09 2.579243e+09 2.283325e+09 2.283325e+09 2.283325e+09 2.420416e+09 2.812969e+08 2.812969e+08 2.812969e+08 1.211266e+09 1.211266e+09 1.211266e+09 1.721772e+09 -2.482947e+09 -7.308407e+09 1.720669e+11 1.720669e+11 1.720669e+11 1.571410e+08 1.212339e+08 1.212339e+08 1.129020e+09 8.798635e+08 2.899983e+09 -2.520061e+09 -1.061158e+09 1.246508e+09 1.615757e+09 3.017752e+08 1.099848e+09 1.937897e+09 1.937897e+09 2.131482e+09 2.073601e+09 1.916369e+08 8.220882e+08 8.201274e+08 2.281803e+07 2.738395e+08 2.861303e+08 2.861303e+08 9.050018e+08 1.163931e+09 9.948478e+08 1.046338e+09 1.674608e+08 1.668713e+09 1.883793e+09 1.883793e+09 2.155050e+09 2.155050e+09 1.128499e+09 1.128499e+09 1.128499e+09 8.667053e+08 8.667053e+08 2.164060e+08 1.486572e+09 1.178536e+09 1.178536e+09 7.494414e+08 9.697983e+07 1.424406e+08 4.000974e+08 4.000974e+08 5.645985e+08 1.030026e+09 1.304039e+09 1.304039e+09 8.541564e+08 8.120440e+08 1.246508e+09 1.246508e+09 5.148497e+08 2.476929e+08 2.476929e+08 2.476929e+08 -4.726273e+09 1.081447e+09 8.457197e+08 1.116113e+07 1.116113e+07 1.116113e+07 1.467091e+10 -5.933068e+08 1.332481e+08 5.127655e+09 5.297136e+08 2.749270e+08 2.749270e+08 2.749270e+08 2.633612e+08 3.306149e+08 5.537755e+08 5.537755e+08 5.537755e+08 5.672502e+08 1.410359e+09 5.488211e+08 5.488211e+08 -1.541379e+09 7.429846e+08 7.429846e+08 7.429846e+08 1.264986e+09 1.264986e+09 1.561035e+09 9.750590e+08 9.750590e+08 9.674383e+08 2.435409e+08 2.435409e+08 1.855259e+08 6.260510e+08 6.260510e+08 6.260510e+08 5.205941e+08 5.205941e+08 5.205941e+08 -1.537578e+08 -1.537578e+08 -1.656272e+08 1.609417e+08 4.047306e+08 4.047306e+08 -2.216317e+08 -6.232836e+06 -6.232836e+06 -1.102253e+08 -1.102253e+08 5.188697e+08 1.575213e+08 1.090613e+08 1.090613e+08 1.271759e+08 1.271759e+08 -3.885079e+07 -3.885079e+07 -4.710419e+08 1.461089e+08 1.461089e+08 8.599967e+07 8.599967e+07 3.429597e+07 1.437482e+08 6.209962e+08 4.924209e+08 4.924209e+08 7.295862e+07 -2.526385e+08 -6.042086e+07 3.251505e+08 3.251505e+08 1.094155e+08 1.588227e+08 1.588227e+08 4.716506e+08 4.716506e+08 1.850704e+08 2.465003e+08 2.465003e+08 2.465003e+08 1.795062e+08 1.795062e+08 4.791309e+08 -4.762426e+07 -4.762426e+07 2.363781e+08 2.363781e+08 1.928625e+08 -1.150249e+08 -1.699956e+08 1.297473e+08 2.165745e+08 2.430263e+08 2.430263e+08 1.404825e+08 1.404825e+08 -2.003091e+09 -2.003091e+09 3.839518e+08 -8.881307e+08 -8.881307e+08 1.252950e+08 2.555425e+07 2.555425e+07 1.162149e+08 1.162149e+08 7.286217e+07 -2.754115e+08 -2.754115e+08 -3.141754e+08 -3.141754e+08 -4.090719e+09 -4.090719e+09 -2.249894e+09 -2.300636e+09 -2.300636e+09 7.557241e+07 6.800014e+07 -1.308262e+08 -6.732273e+08 -7.090007e+08 1.954759e+08 1.456415e+08 9.464485e+07 9.464485e+07 1.411077e+08 9.369740e+06 9.369740e+06 3.628324e+07 -2.835111e+07 1.176626e+08 1.597237e+08 1.597237e+08 -2.998234e+09 -2.998234e+09 9.874484e+07 1.005474e+08 -2.427817e+07 -2.427817e+07 5.085175e+07 5.085175e+07 8.241150e+07 9.243823e+06 9.243823e+06 9.243823e+06 1.182678e+07 1.182678e+07 4.770560e+07 6.543056e+06 -2.004298e+08 -2.004298e+08 8.685149e+06 8.685149e+06 3.871877e+07 -7.891573e+06 8.010628e+07 4.551213e+07 -2.319159e+09 2.839728e+10 -7.186842e+07 -1.496875e+09 1.888598e+07 -2.482309e+06 -2.711256e+08 -4.080256e+07 -5.790643e+07 -1.423677e+07 1.535392e+07 1.320662e+07 2.754216e+06 2.754216e+06 -1.678494e+07 -4.478462e+06 5.497140e+06 1.313086e+06 -8.318415e+06 2.621070e+06 2.621070e+06 4.561023e+06 4.561023e+06 -1.628550e+06 -1.628550e+06 3.603348e+06 4.248267e+06 4.248267e+06 4.248267e+06 7.233680e+05 7.233680e+05 -5.962661e+06 -5.962661e+06 -5.962661e+06 3.107138e+07 3.107138e+07 1.527823e+08 1.465500e+08 -2.095285e+07 1.527823e+08 1.527823e+08 2.743350e+08 3.939921e+07 1.467479e+07 -3.653963e+06 -6.392830e+06 -5.921575e+06 -4.704420e+06 -2.294503e+06 -4.730900e+06 -4.730900e+06 -5.316742e+08 2.260561e+08 -2.095285e+07 6.524283e+07 2.671878e+07 3.774358e+06 8.557851e+07 8.557851e+07 3.818309e+07 4.539381e+07 3.818309e+07 4.108141e+06 3.269091e+07 1.721805e+07 -4.510439e+07 6.279739e+07 6.279739e+07 1.663834e+05 -3.206612e+10 -3.206612e+10 -2.815296e+10 -2.495576e+10 -3.186305e+10 -3.159622e+10 -2.915661e+10 -2.878117e+10 -4.001855e+10 -4.177722e+10 -4.088824e+10 -3.596451e+10 -2.993328e+10 -3.110971e+10 -3.040624e+10 -2.619355e+10 -2.707954e+10 -3.230999e+10 -3.647991e+10 -3.850017e+10 -3.593088e+10 -3.792165e+10 -3.852909e+10 -3.798306e+10 -3.435703e+10 -3.333222e+10 -3.957821e+10 -3.781391e+10 -3.196048e+10 -2.885033e+10 -3.208673e+10 -3.135265e+10 -2.350595e+10 -1.495562e+10 -2.264130e+10 -2.634654e+10 -2.631702e+10 -2.301721e+10 -2.219173e+10 -2.481273e+10 -2.344213e+10 -2.352913e+10 -2.037382e+10 -2.038845e+10 -1.918504e+10 -1.830921e+10 -1.544618e+10 -1.170354e+10 -1.216530e+10 -1.423945e+10 -1.439283e+10 -1.465689e+10 -1.388705e+10 -1.215267e+10 -7.786282e+09 -7.221231e+09 -6.497852e+09 -6.962356e+09 -6.664622e+09 -6.570091e+09 -6.644207e+09 -5.782640e+09 -4.739703e+09 -5.019918e+09 -4.872645e+09 -4.004898e+09 -2.748447e+09 -3.075639e+09 -3.202885e+09 -2.950926e+09 -2.392030e+09 -2.458876e+09 -2.216507e+09 -1.700468e+09 -1.012015e+09 -1.030327e+09 -8.735455e+08 -8.176936e+08 -6.553612e+08 -4.936558e+08 -5.576328e+06 1.058024e+07 3.208542e+08 8.324515e+08 8.704106e+08 -4.252207e+07 3.507293e+08 1.175938e+09 1.161205e+09 2.658557e+09 1.628693e+09 -4.377602e+08 -1.786082e+09 -9.831839e+08 -2.634542e+08 -4.058743e+08 -6.821520e+08 -9.181513e+08 -9.268867e+08 -2.083858e+09 -2.625320e+09 -2.761952e+09 -2.843577e+09 -4.506665e+09 -5.388894e+09 -5.388130e+09 -5.525551e+09 -5.945097e+09 -6.486632e+09 -6.620759e+09 -6.069509e+09 -5.364525e+09 -4.420266e+09 -5.649492e+09 -7.312040e+09 -7.542818e+09 -8.222888e+09 -8.893734e+09 -7.874420e+09 -1.214045e+10 -1.415614e+10 -1.598997e+10 -1.655662e+10 -1.722925e+10 -1.426248e+10 -1.636195e+10 -1.917227e+10 -2.056124e+10 -2.233203e+10 -2.285799e+10 -1.849527e+10 -1.731474e+10 -2.283474e+10 -2.370256e+10 -2.127409e+10 -2.278879e+10 -2.517986e+10 -2.277299e+10 -2.126851e+10 -2.307783e+10 -2.073167e+10 -2.892493e+10 -3.445254e+10 -3.656615e+10 -3.644061e+10 -3.922020e+10 -3.754908e+10 -4.077605e+10 -3.886746e+10 -3.543680e+10 -2.571953e+10 -2.634199e+10 -2.993460e+10 -2.776644e+10 -3.128035e+10 -2.947767e+10 -2.476831e+10 -2.440083e+10 -2.794398e+10 -3.469036e+10 -3.040899e+10 -3.617036e+10 -3.707349e+10 -3.279486e+10 -3.090311e+10 -2.756786e+10 -2.703755e+10 -3.259555e+10 -2.977498e+10 -2.837213e+10 -4.489583e+10 -5.259318e+10 -5.567596e+10 -5.786454e+10 -5.931429e+10 -5.698510e+10 -5.092843e+10 -4.379361e+10 -5.278891e+10 -6.602571e+10 -2.255564e+08 -2.128838e+08 -2.128838e+08 -2.128838e+08 3.632194e+07 3.632194e+07 3.632194e+07 1.638190e+07 1.021804e+07 4.188736e+06 2.212957e+06 8.048541e+06 8.048541e+06 8.048541e+06 7.431492e+06 -6.362542e+06 -6.362542e+06 -6.362542e+06 -6.201786e+06 -6.179224e+06 2.063614e+09 2.063614e+09 2.063614e+09 1.920706e+09 2.188914e+09 2.188914e+09 2.188914e+09 1.999346e+09 -2.347832e+08 -2.347832e+08 -2.347832e+08 -3.868606e+08 -7.682272e+08 -8.871820e+08 2.037882e+09 2.037882e+09 2.037882e+09 1.946122e+09 1.946122e+09 7.963692e+08 7.963692e+08 7.963692e+08 1.238930e+09 2.972689e+08 2.972689e+08 2.972689e+08 -1.701409e+09 -1.701409e+09 -8.410562e+09 -8.410562e+09 -8.410562e+09 -6.529853e+08 -6.529853e+08 -6.529853e+08 -6.891780e+08 -1.390079e+08 -1.390079e+08 -1.390079e+08 -8.830742e+09 -8.830742e+09 -8.830742e+09 -1.315076e+10 -1.851100e+10 -1.851100e+10 -1.350877e+10 -1.350877e+10 -2.323011e+09 -2.323011e+09 -2.103121e+09 -4.434697e+09 -4.434697e+09 -4.434697e+09 -8.644576e+09 -8.644576e+09 -1.121916e+10 -1.121916e+10 -1.121916e+10 -6.048589e+09 -6.048589e+09 -1.168965e+07 -1.168965e+07 -1.168965e+07 -1.201602e+07 -1.201602e+07 2.488808e+09 2.488808e+09 -7.184798e+08 -7.184798e+08 -7.184798e+08 -4.798838e+08 8.720915e+08 8.720915e+08 8.720915e+08 7.958392e+08 6.510401e+08 -2.289474e+09 -2.289474e+09 -2.289474e+09 -1.481377e+09 -1.481377e+09 -1.351923e+09 -2.634654e+10 -1.591225e+10 -1.591225e+10 -5.786454e+10 -4.148363e+10 -4.148363e+10 7.260306e+08 -1.426248e+10 -1.437461e+10 5.602599e+06 -1.169329e+08 -1.169329e+08 -1.169329e+08 -8.217366e+07 -6.526291e+06 9.997807e+10 9.997807e+10 9.997807e+10 -8.463910e+09 -8.463910e+09 1.408298e+07 1.408298e+07 1.408298e+07 -8.759294e+06 2.809433e+08 2.809433e+08 2.809433e+08 2.616143e+08 1.561866e+09 1.372283e+09 1.114701e+09 2.045967e+09 2.045967e+09 -1.861827e+09 -1.861827e+09 -1.861827e+09 -2.326025e+09 8.030832e+08 8.030832e+08 8.030832e+08 8.297958e+08 8.297958e+08 7.402587e+08 1.188053e+09 1.188053e+09 1.188053e+09 1.197255e+09 7.383517e+08 7.383517e+08 7.383517e+08 6.526736e+08 6.185827e+08 3.617288e+08 3.617288e+08 3.617288e+08 3.644400e+08 2.752166e+09 3.905479e+09 2.183321e+08 2.183321e+08 2.183321e+08 1.754975e+08 1.728002e+09 1.728002e+09 1.728002e+09 1.757842e+09 1.306760e+09 1.306760e+09 1.306760e+09 1.339867e+09 1.339867e+09 -2.927791e+09 -2.927791e+09 -2.927791e+09 -1.589741e+09 -3.252729e+09 -3.252729e+09 -3.25272