<?xml version="1.0"?>
 <VTKFile type="UnstructuredGrid" version="1.0" byte_order="LittleEndian" header_type="UInt64">
  <UnstructuredGrid>
    <FieldData>
     <DataArray type="Float64" Name="TimeValue" NumberOfTuples="1" format="ascii">
4e-08
     </DataArray>
    </FieldData>
   <Piece NumberOfPoints="3632" NumberOfCells="3379">
    <PointData>
     <DataArray type="Float64" Name="pointP" format="ascii">
1.346790e+26 1.346790e+26 2.283154e+26 3.586806e+26 6.969898e+26 5.090705e+26 2.290090e+26 6.821057e+25 1.049337e+27 8.039841e+26 6.407067e+26 3.453381e+26 5.146377e+25 3.069706e+26 4.986412e+26 1.718246e+26 1.451078e+26 2.501446e+26 5.088671e+26 6.531429e+26 1.792511e+26 2.609941e+26 2.605012e+26 3.069279e+26 1.890848e+26 1.986370e+26 1.024335e+27 7.664230e+26 2.947101e+26 1.785427e+26 5.391675e+26 6.458061e+26 1.487381e+26 -1.293660e+25 1.897185e+26 2.478125e+26 2.469783e+26 1.327654e+26 7.377605e+25 2.506057e+26 1.666632e+26 2.654752e+26 7.052350e+25 1.485373e+26 1.197685e+26 1.284479e+26 9.614462e+25 1.867347e+25 3.980400e+25 8.365917e+25 6.968338e+25 8.492598e+25 6.810675e+25 5.486402e+25 8.264950e+24 1.298585e+25 6.081303e+24 1.774079e+25 1.250646e+25 1.316979e+25 2.100420e+25 9.170200e+24 2.570151e+24 1.158986e+25 1.629528e+25 7.148467e+24 -1.134855e+23 4.585886e+24 7.646038e+24 5.490592e+24 1.211764e+24 3.938287e+24 3.590905e+24 1.134950e+24 4.197892e+21 7.748353e+23 5.554584e+23 7.333112e+23 7.350865e+23 7.456475e+23 -2.160298e+22 7.651910e+22 1.086475e+23 5.859273e+22 4.311172e+22 1.722600e+22 1.099686e+22 8.176830e+21 -1.666673e+21 -2.954198e+21 -1.411278e+21 9.814355e+20 5.191870e+21 4.476893e+21 6.892860e+21 2.158718e+22 1.613008e+22 3.441738e+22 -2.758003e+22 7.089403e+23 1.206881e+24 1.047545e+24 1.841024e+23 3.224081e+24 5.859861e+24 2.212462e+24 3.483785e+24 6.865379e+24 8.150769e+24 9.546579e+24 6.969363e+24 4.960334e+24 1.338609e+23 3.313689e+24 1.636501e+25 1.413111e+25 1.171262e+25 2.158926e+25 1.175509e+24 2.227759e+25 3.545282e+25 7.230500e+25 7.284134e+25 1.117596e+26 1.707161e+25 4.895833e+25 1.148382e+26 1.127736e+26 1.569678e+26 1.647245e+26 3.743603e+25 2.691511e+25 2.065772e+26 1.682816e+26 5.751641e+25 9.804406e+25 2.052644e+26 7.504905e+25 5.776575e+25 1.238628e+26 2.724176e+24 1.372627e+26 2.885382e+26 2.868052e+26 1.407087e+26 3.252300e+26 1.448324e+26 5.825202e+26 4.556033e+26 4.724898e+26 2.162772e+25 9.535047e+25 2.880993e+26 2.383444e+26 3.242277e+26 3.442861e+26 6.607954e+25 7.453732e+25 2.372352e+26 5.060296e+26 1.968056e+26 3.474689e+26 4.725267e+26 3.172710e+26 2.959200e+26 1.171809e+26 8.271648e+25 3.740224e+26 1.431276e+26 3.232198e+25 4.517365e+26 9.363186e+26 7.806471e+26 5.945343e+26 1.084789e+27 9.779836e+26 5.658380e+26 1.434952e+26 9.318531e+26 9.367071e+26 5.578362e+26 -5.073559e+09 -5.073559e+09 -5.073559e+09 4.646276e+10 4.646276e+10 4.646276e+10 1.240107e+11 1.087218e+11 2.162707e+12 2.920614e+11 1.497255e+13 1.497255e+13 1.497255e+13 -5.349746e+12 -6.890426e+15 -6.890426e+15 -6.890426e+15 -7.203988e+15 -6.740681e+15 -4.193188e+21 -4.193188e+21 -4.193188e+21 -3.958638e+21 -4.648827e+21 -4.648827e+21 -4.648827e+21 9.257819e+21 -4.322852e+18 -4.322852e+18 -4.322852e+18 5.189363e+19 4.464603e+18 3.096636e+19 5.332525e+21 5.332525e+21 5.332525e+21 1.291370e+22 1.291370e+22 -1.534065e+23 -1.534065e+23 -1.534065e+23 -4.457307e+22 -1.179707e+23 -1.179707e+23 -1.179707e+23 7.232498e+23 7.232498e+23 3.827481e+24 3.827481e+24 3.827481e+24 4.287213e+22 4.287213e+22 4.287213e+22 4.888115e+22 2.102016e+20 2.102016e+20 2.102016e+20 4.975823e+24 4.975823e+24 4.975823e+24 3.388676e+25 3.203433e+25 3.203433e+25 2.338626e+23 2.338626e+23 1.181551e+24 1.181551e+24 -3.305532e+23 -4.473021e+25 -4.473021e+25 -4.473021e+25 -3.297807e+24 -3.297807e+24 1.787257e+25 1.787257e+25 1.787257e+25 6.786576e+24 6.786576e+24 -1.674536e+15 -1.674536e+15 -1.674536e+15 1.056245e+17 1.056245e+17 -1.131767e+22 -1.131767e+22 8.669728e+22 8.669728e+22 8.669728e+22 3.249272e+22 3.513520e+21 3.513520e+21 3.513520e+21 -6.664114e+20 -5.398962e+20 1.165506e+21 1.165506e+21 1.165506e+21 9.128375e+22 9.128375e+22 -2.508946e+23 2.478125e+26 9.369396e+24 9.369396e+24 5.945343e+26 7.175282e+24 7.175282e+24 1.211901e+22 1.707161e+25 2.589214e+25 2.218275e+11 -7.413168e+12 -7.413168e+12 -7.413168e+12 -6.142131e+12 -1.510649e+15 -5.050491e+14 -5.050491e+14 -5.050491e+14 -1.273999e+15 -1.273999e+15 -1.608201e+18 -1.608201e+18 -1.608201e+18 -7.082458e+17 1.618625e+19 1.618625e+19 1.618625e+19 1.573987e+19 2.271505e+20 1.941108e+21 1.922407e+20 -8.344584e+21 -8.344584e+21 -3.348857e+16 -3.348857e+16 -3.348857e+16 -2.381325e+16 4.678684e+21 4.678684e+21 4.678684e+21 -1.588171e+21 -1.588171e+21 -1.777421e+21 -3.296810e+21 -3.296810e+21 -3.296810e+21 -2.766632e+21 -6.388317e+20 -6.388317e+20 -6.388317e+20 -5.438850e+20 -5.965184e+20 7.206635e+20 7.206635e+20 7.206635e+20 8.034413e+20 4.186087e+21 -3.143298e+22 -5.762509e+20 -5.762509e+20 -5.762509e+20 -4.189972e+20 -3.723488e+22 -3.723488e+22 -3.723488e+22 -2.808196e+22 2.310799e+22 2.310799e+22 2.310799e+22 -6.247327e+21 -6.247327e+21 -3.534008e+23 -3.534008e+23 -3.534008e+23 -7.233455e+23 3.438488e+23 3.438488e+23 3.438488e+23 3.438607e+23 2.867858e+23 2.867858e+23 2.867858e+23 4.120660e+25 -1.861530e+24 -1.861530e+24 1.645263e+23 2.685244e+21 2.685244e+21 2.354174e+21 2.354174e+21 2.354174e+21 5.419412e+21 5.419412e+21 5.419412e+21 2.137935e+20 -1.351650e+27 -1.351650e+27 -1.351650e+27 6.927609e+25 6.927609e+25 -2.188290e+25 -2.188290e+25 -2.188290e+25 -1.089519e+25 -1.089519e+25 1.640306e+21 6.277675e+24 6.277675e+24 -1.757963e+24 6.172815e+25 6.172815e+25 6.172815e+25 3.207215e+25 -1.544001e+24 -1.544001e+24 -1.767271e+25 -1.767271e+25 5.923925e+25 5.923925e+25 -1.097337e+25 -2.447921e+23 -2.447921e+23 2.171815e+25 2.171815e+25 -2.504020e+25 -2.504020e+25 -1.460715e+24 -1.460715e+24 -1.460715e+24 -1.196629e+24 -1.189129e+21 2.495059e+18 1.071329e+21 1.071329e+21 1.071329e+21 -1.043887e+23 -4.656725e+23 -4.656725e+23 -4.656725e+23 1.981338e+21 1.981338e+21 9.378646e+24 9.378646e+24 9.378646e+24 2.718057e+24 2.718057e+24 4.695843e+23 1.212673e+23 5.633795e+25 5.633795e+25 5.633795e+25 4.961392e+24 2.992840e+22 2.992840e+22 2.992840e+22 1.341439e+24 1.341439e+24 -9.189145e+22 1.852505e+23 -1.680993e+20 -1.680993e+20 -1.680993e+20 5.087969e+19 5.087969e+19 3.767120e+17 7.662461e+19 7.662461e+19 1.192545e+23 1.192545e+23 1.192545e+23 -2.116867e+22 -2.116867e+22 1.950407e+19 1.950407e+19 1.950407e+19 5.181885e+20 5.181885e+20 -7.767708e+22 -7.767708e+22 -1.695554e+21 -1.695554e+21 1.998184e+20 1.998184e+20 2.291737e+19 3.508281e+23 3.508281e+23 5.345326e+22 5.345326e+22 2.060841e+21 2.060841e+21 2.060841e+21 6.325973e+21 -4.452314e+18 -4.452314e+18 -4.452314e+18 8.702062e+18 8.702062e+18 3.832659e+20 6.397483e+20 5.761612e+17 -2.466989e+12 -2.466989e+12 -2.466989e+12 -7.227333e+12 -7.227333e+12 2.556626e+13 2.556626e+13 2.160565e+11 -1.121538e+13 -1.121538e+13 -4.893309e+13 -9.047741e+13 7.068377e+15 7.068377e+15 7.068377e+15 -2.157037e+15 -2.157037e+15 -2.157037e+15 -1.813533e+16 -1.813533e+16 -1.813533e+16 -4.460148e+17 -8.179951e+17 5.319558e+15 -2.429860e+17 -2.429860e+17 -2.429860e+17 2.588172e+17 -1.489235e+17 -1.489235e+17 -1.489235e+17 -5.070395e+17 -5.070395e+17 -5.070395e+17 4.926064e+19 4.327896e+20 4.327896e+20 4.327896e+20 2.726337e+20 2.726337e+20 2.726337e+20 1.231094e+18 1.231094e+18 1.231094e+18 6.916720e+21 6.916720e+21 4.817294e+18 -1.326771e+22 -3.539958e+21 -3.539958e+21 8.180002e+20 8.180002e+20 8.180002e+20 1.189438e+22 1.189438e+22 -3.409476e+18 -3.409476e+18 1.076919e+24 2.523684e+23 -3.143298e+22 -5.416798e+21 -5.416798e+21 -5.416798e+21 3.320984e+22 5.405598e+21 5.405598e+21 5.405598e+21 4.617470e+19 1.427890e+20 6.670129e+19 -8.007868e+20 -8.007868e+20 -8.007868e+20 6.185787e+23 6.185787e+23 6.185787e+23 7.292071e+22 3.555477e+23 1.439474e+21 1.439474e+21 1.439474e+21 -2.669298e+23 -2.669298e+23 -2.669298e+23 -6.851666e+23 -6.814708e+20 -6.814708e+20 -6.814708e+20 1.505848e+22 3.521661e+24 3.521661e+24 3.521661e+24 -8.437144e+22 1.245150e+21 1.245150e+21 -2.352399e+20 -2.352399e+20 -2.352399e+20 -8.245384e+20 -4.079752e+20 2.211944e+25 2.211944e+25 5.814372e+24 6.466434e+24 -4.546799e+24 6.188735e+24 6.188735e+24 1.353385e+23 1.353385e+23 1.353385e+23 1.679292e+23 1.245863e+25 1.245863e+25 1.245863e+25 -3.795712e+24 1.158986e+25 1.117017e+22 1.117017e+22 7.554558e+23 7.554558e+23 7.554558e+23 -7.521001e+22 1.739624e+26 3.941744e+23 3.941744e+23 3.928355e+22 -1.288855e+23 -1.288855e+23 -1.288855e+23 -2.862395e+25 -2.862395e+25 -9.077372e+24 -9.077372e+24 -9.077372e+24 3.106791e+26 -6.232432e+24 -6.232432e+24 -6.232432e+24 -2.000866e+25 -2.000866e+25 1.726110e+26 -4.268216e+24 -4.268216e+24 2.058799e+21 4.990795e+25 4.990795e+25 1.055964e+26 7.442102e+23 8.041018e+24 1.151998e+25 8.041018e+24 8.041018e+24 -5.758722e+23 -5.758722e+23 -5.758722e+23 1.366349e+23 1.366349e+23 -1.480518e+23 -1.480518e+23 2.219251e+23 2.219251e+23 -7.097919e+22 -7.097919e+22 -7.097919e+22 -1.072780e+23 -1.072780e+23 -1.496320e+18 -1.496320e+18 -1.496320e+18 1.616165e+19 1.616165e+19 2.176421e+22 2.176421e+22 2.176421e+22 3.918873e+21 3.918873e+21 1.821464e+21 1.821464e+21 1.821464e+21 1.133289e+19 1.500522e+23 1.500522e+23 1.500522e+23 -4.032128e+22 -4.032128e+22 -1.085451e+21 -1.085451e+21 -1.085451e+21 2.639648e+21 2.639648e+21 8.676459e+19 8.676459e+19 8.676459e+19 1.506669e+20 1.506669e+20 -1.095762e+21 -1.095762e+21 -1.095762e+21 -1.648920e+18 -1.648920e+18 -1.648920e+18 1.737359e+19 1.737359e+19 2.988844e+19 -6.443274e+18 1.655746e+18 1.655746e+18 1.655746e+18 -4.208522e+18 1.668702e+14 1.668702e+14 -6.069126e+15 1.023255e+15 1.023255e+15 6.561983e+15 6.561983e+15 -3.214175e+14 -5.549485e+13 -7.694517e+15 4.743965e+11 -7.694517e+15 -7.694517e+15 2.162707e+12 2.162707e+12 1.098094e+10 -7.254412e+17 2.166165e+17 2.351828e+22 2.351828e+22 2.351828e+22 2.608426e+22 2.304959e+22 4.801403e+20 4.801403e+20 4.801403e+20 4.781159e+20 7.137748e+21 -1.340464e+22 3.908905e+24 3.908905e+24 3.908905e+24 1.467755e+24 3.377913e+23 1.007942e+24 4.705253e+24 1.658171e+20 1.658171e+20 -3.465925e+20 5.191015e+24 2.256896e+25 2.256896e+25 -1.245869e+24 -8.470204e+23 3.151074e+25 -7.343993e+23 -1.253670e+24 7.049237e+22 7.049237e+22 7.049237e+22 -5.552137e+23 5.190895e+25 5.190895e+25 5.190895e+25 2.499311e+26 1.575724e+21 1.448324e+26 -1.992439e+25 -1.992439e+25 3.794517e+23 3.794517e+23 3.794517e+23 3.412931e+24 3.332996e+26 3.332996e+26 1.629392e+23 1.629392e+23 1.629392e+23 -1.515045e+24 5.649032e+25 5.649032e+25 -5.175372e+22 -3.848060e+23 -3.848060e+23 -3.848060e+23 -4.003626e+23 8.290933e+25 2.703309e+26 2.703309e+26 -1.337980e+25 6.607954e+25 1.206855e+21 1.206855e+21 -1.416373e+25 -1.416373e+25 -1.416373e+25 9.615650e+25 7.947293e+24 -1.515434e+25 -1.515434e+25 -8.494964e+23 6.066608e+25 6.066608e+25 1.020396e+24 -4.998187e+24 -4.998187e+24 -1.774741e+25 -1.885250e+24 2.227759e+25 -1.243278e+24 -1.243278e+24 4.112711e+26 4.112711e+26 -1.510022e+24 2.513026e+26 2.513026e+26 5.966779e+23 5.966779e+23 5.966779e+23 6.816688e+24 -1.623767e+25 -1.623767e+25 4.396968e+25 4.396968e+25 -5.241523e+24 -3.478243e+25 1.989629e+23 1.733615e+23 1.407087e+26 3.568449e+24 3.568449e+24 8.176830e+21 -1.307139e+21 -1.307139e+21 1.339171e+26 1.339171e+26 1.291028e+25 1.291028e+25 5.707332e+24 -5.651700e+20 1.228037e+26 1.228037e+26 -3.477845e+25 2.289724e+26 2.289724e+26 1.666632e+26 5.395997e+23 4.811616e+23 4.811616e+23 4.811616e+23 -1.064636e+25 -1.064636e+25 -1.064636e+25 -8.968946e+24 7.200530e+22 7.200530e+22 4.394126e+24 -9.272635e+24 -9.272635e+24 -1.026275e+24 -5.398150e+23 1.575189e+23 1.575189e+23 1.575189e+23 8.685157e+25 8.685157e+25 7.052350e+25 2.396394e+27 2.396394e+27 7.350865e+23 3.032790e+23 7.651910e+22 4.132204e+22 -1.811134e+26 5.665384e+25 5.665384e+25 9.465042e+23 9.465042e+23 9.465042e+23 -1.027810e+24 -2.449013e+25 8.917592e+25 2.638957e+23 2.638957e+23 3.394253e+24 -2.393724e+24 -2.393724e+24 1.234949e+26 1.234949e+26 1.965755e+26 7.148467e+24 3.864152e+23 3.864152e+23 3.116565e+22 6.767940e+25 6.767940e+25 -6.612168e+25 -6.612168e+25 -1.941609e+21 -1.941609e+21 -1.941609e+21 -4.181870e+23 -4.181870e+23 -4.181870e+23 1.779168e+20 1.779168e+20 -1.652219e+24 3.610802e+26 -5.294627e+24 -2.100501e+25 -1.306255e+24 -1.872650e+24 -1.378094e+25 3.336987e+23 2.506573e+22 1.923343e+25 1.923343e+25 1.978097e+24 4.150637e+23 2.160252e+25 5.891334e+24 -3.388940e+21 -3.388940e+21 1.346790e+26 -6.722589e+24 9.569568e+26 9.569568e+26 9.569568e+26 1.459254e+26 -1.740336e+25 3.941023e+24 2.446470e+26 -2.188375e+25 -1.980891e+23 -1.980891e+23 -8.340121e+23 1.281193e+25 2.650839e+25 -1.055139e+24 -2.340861e+24 9.656830e+22 9.656830e+22 9.656830e+22 6.709196e+22 -1.641701e+23 -1.641701e+23 -1.641701e+23 -4.539844e+24 4.463352e+25 1.246953e+24 2.462198e+24 -1.804511e+24 -8.830166e+22 4.906473e+24 6.940809e+24 -8.670792e+24 3.528919e+23 3.528919e+23 -1.293086e+23 -7.554505e+23 -2.028863e+25 -6.311976e+24 1.796314e+24 9.130372e+23 9.130372e+23 5.544581e+24 5.544581e+24 6.786386e+23 6.786386e+23 8.368236e+22 2.905327e+24 -1.228600e+21 9.946326e+23 -1.868003e+25 -1.630411e+25 9.588940e+22 6.415002e+21 -8.718411e+20 -8.718411e+20 -8.244584e+23 -8.244584e+23 7.754762e+24 7.754762e+24 3.984494e+23 6.627785e+22 3.545424e+24 3.545424e+24 3.315070e+23 2.306948e+23 2.306948e+23 4.241519e+22 4.241519e+22 1.714613e+23 1.714613e+23 8.687946e+24 3.508936e+24 3.508936e+24 1.337585e+25 1.337585e+25 1.337585e+25 1.805849e+25 4.456862e+24 4.456862e+24 -1.026931e+26 -1.026931e+26 2.309035e+25 1.132782e+25 7.056307e+24 -2.278990e+25 -7.654169e+25 1.158850e+25 1.158850e+25 2.055201e+20 2.055201e+20 2.295727e+21 5.021390e+24 5.021390e+24 -4.067874e+23 -4.067874e+23 4.640878e+25 4.640878e+25 3.896485e+22 5.480866e+24 -2.950499e+22 -2.950499e+22 -6.025561e+22 -2.716524e+20 -3.923644e+19 7.894635e+24 3.130636e+24 -1.749845e+24 6.034338e+25 2.578972e+25 -3.183076e+22 -3.183076e+22 -3.183076e+22 -2.026723e+20 -2.026723e+20 -2.026723e+20 1.249319e+22 1.254114e+23 1.254114e+23 1.254114e+23 3.070853e+23 -1.794857e+25 -6.196308e+23 1.210927e+24 8.531865e+23 8.531865e+23 -3.659504e+21 -3.659504e+21 -3.659504e+21 -2.759252e+24 2.848942e+25 -1.378210e+25 2.325711e+24 2.325711e+24 2.692207e+24 -1.330033e+20 9.167137e+23 9.167137e+23 4.411077e+23 6.056225e+23 6.056225e+23 6.941273e+24 -2.910938e+25 5.995411e+22 1.338770e+21 6.414962e+24 4.262783e+22 6.721375e+21 -9.449205e+24 3.791994e+21 3.791994e+21 3.791994e+21 9.272066e+22 9.272066e+22 1.349007e+26 1.113665e+24 1.113665e+24 1.701267e+25 4.245951e+24 7.257423e+23 3.409973e+26 -4.773855e+24 -4.773855e+24 -4.773855e+24 -2.022907e+24 6.932998e+24 6.932998e+24 8.911232e+24 3.232449e+23 3.232449e+23 -8.538538e+21 -8.538538e+21 -8.538538e+21 -8.946493e+21 1.439693e+23 2.382429e+24 2.382429e+24 2.382429e+24 5.427557e+24 5.382930e+23 6.701937e+23 6.701937e+23 -7.680755e+22 -7.680755e+22 -1.737895e+24 2.600855e+24 2.600855e+24 5.952825e+20 8.848394e+20 2.828162e+23 2.828162e+23 2.958213e+25 -4.091402e+23 2.804220e+23 1.151998e+25 5.045286e+24 7.462025e+23 1.342713e+23 6.555669e+24 8.861922e+21 8.861922e+21 -6.143619e+21 -6.143619e+21 -6.034182e+22 1.319983e+22 -4.227010e+21 2.767658e+23 -3.474460e+24 2.561947e+24 2.347272e+23 7.890838e+23 7.890838e+23 1.547490e+24 1.547490e+24 1.547490e+24 2.034516e+24 -5.321406e+23 -5.321406e+23 -9.600129e+23 1.078175e+20 1.287508e+21 1.175744e+23 1.366979e+24 -2.690272e+24 -2.690272e+24 -2.690272e+24 -3.137107e+22 3.437748e+22 2.283154e+26 2.726019e+24 6.720052e+24 6.720052e+24 8.447554e+24 8.447554e+24 8.447554e+24 2.110810e+23 4.974611e+23 4.974611e+23 9.140946e+24 9.140946e+24 1.984253e+24 6.742513e+23 1.913340e+22 1.146265e+25 -9.890871e+23 9.817815e+22 1.574391e+24 -4.517734e+22 2.163815e+20 2.897857e+22 2.897857e+22 2.897857e+22 2.242942e+22 1.336842e+24 3.262627e+23 4.630796e+21 3.059274e+23 -7.705419e+22 -6.684152e+19 -4.711857e+19 9.058497e+22 9.058497e+22 -2.490642e+22 -4.096135e+22 -4.096135e+22 -2.300196e+21 2.573171e+23 2.573171e+23 1.719235e+22 1.006940e+24 1.006940e+24 2.605886e+24 7.560122e+24 1.497640e+24 1.497640e+24 -4.031727e+22 -5.118613e+22 -5.118613e+22 -3.271654e+21 -2.323327e+23 -6.048067e+23 -1.391854e+24 2.694358e+23 2.694358e+23 4.414271e+20 3.185056e+22 -8.740132e+21 3.045404e+21 1.296170e+21 -1.345246e+23 -1.345246e+23 2.236835e+23 2.236835e+23 2.236835e+23 1.996349e+21 5.963834e+21 -8.971907e+22 1.221622e+23 1.221622e+23 8.210729e+19 6.666860e+18 6.666860e+18 1.887078e+21 2.504079e+21 3.488126e+21 -3.884570e+23 9.993309e+24 9.993309e+24 9.993309e+24 -5.650236e+23 2.441233e+24 1.974564e+23 2.838439e+22 4.605054e+22 -1.202996e+23 -1.202996e+23 -1.202996e+23 7.715965e+20 7.715965e+20 7.715965e+20 -7.122810e+21 1.603833e+19 4.205637e+24 3.865557e+23 3.693478e+23 1.192887e+21 1.192887e+21 2.763086e+23 2.944080e+22 -1.064977e+23 -1.064977e+23 -9.979796e+21 -4.060138e+22 -4.060138e+22 1.368381e+24 9.259328e+22 9.259328e+22 -3.868382e+22 -5.493847e+21 -5.493847e+21 8.840574e+20 -1.401734e+23 -1.401734e+23 2.191814e+23 2.191814e+23 -1.977586e+23 -1.977586e+23 -1.977586e+23 -1.157996e+22 -9.085626e+21 -9.085626e+21 -3.898946e+23 -3.898946e+23 -3.898946e+23 1.846346e+24 2.042392e+23 -5.788822e+21 1.911551e+24 1.911551e+24 -2.334459e+23 4.211682e+23 4.211682e+23 4.211682e+23 -6.893182e+21 -6.893182e+21 -5.672570e+21 -3.048986e+21 -3.048986e+21 -3.325520e+23 1.017691e+24 1.973146e+25 1.973146e+25 -8.161926e+22 5.458452e+22 -1.596328e+22 -1.596328e+22 -1.596328e+22 1.074202e+24 -8.314100e+22 -8.314100e+22 -5.416262e+22 -5.416262e+22 4.844880e+22 4.844880e+22 1.496849e+23 1.496849e+23 -1.005542e+25 -1.005542e+25 -5.001706e+23 9.540353e+21 9.410603e+21 8.462740e+22 -6.850414e+22 -6.850414e+22 -6.850414e+22 4.009462e+20 -2.753918e+21 1.045899e+24 -9.002000e+20 6.798097e+22 -7.931960e+22 8.985737e+22 8.985737e+22 9.827438e+23 6.711858e+23 6.711858e+23 4.156442e+21 -3.905617e+20 4.530942e+23 4.530942e+23 1.794619e+22 1.706011e+23 1.706011e+23 6.093923e+20 1.702776e+18 3.081335e+24 -1.203983e+20 1.909821e+24 -4.019324e+23 -4.019324e+23 2.689363e+22 -1.463701e+21 -1.910215e+22 2.922111e+23 1.451261e+24 -1.011954e+23 -1.011954e+23 1.058116e+23 1.058116e+23 3.009113e+18 -2.291576e+23 7.195917e+23 7.195917e+23 2.885550e+23 6.921643e+22 -1.235177e+22 5.277260e+20 5.277260e+20 5.277260e+20 6.488529e+20 6.488529e+20 -3.724519e+22 8.845008e+22 1.178635e+23 -8.770485e+22 -8.770485e+22 6.676278e+20 6.676278e+20 1.024904e+21 9.556238e+19 9.556238e+19 -2.466470e+23 -2.466470e+23 -2.466470e+23 -2.692473e+21 -2.692473e+21 -2.701336e+21 -2.701336e+21 7.131811e+21 -1.639568e+22 7.445346e+20 7.445346e+20 7.445346e+20 -7.339970e+22 1.081767e+23 -8.640487e+21 -8.640487e+21 -4.995345e+20 2.793394e+23 2.523684e+23 4.112897e+23 -5.382930e+21 -3.752989e+21 1.853899e+21 5.458452e+22 6.210830e+22 6.210830e+22 -2.337394e+22 -2.337394e+22 5.019476e+23 3.305525e+23 -2.751150e+22 1.348094e+24 4.380443e+22 4.380443e+22 3.136875e+22 5.886640e+23 -4.986440e+22 -3.219098e+23 1.944880e+20 -1.264468e+22 2.216205e+23 2.661157e+23 2.661157e+23 -5.520913e+22 -5.520913e+22 -1.753946e+21 -5.378723e+18 -5.378723e+18 -5.378723e+18 -1.510523e+22 -5.325387e+22 4.316162e+20 2.254847e+21 2.684907e+23 1.903893e+23 1.811158e+23 1.059699e+23 -2.622476e+21 7.111372e+21 7.111372e+21 7.111372e+21 1.138248e+23 4.133993e+20 2.771242e+23 4.701326e+21 4.701326e+21 -1.791474e+22 1.032077e+21 -1.520525e+19 -1.520525e+19 1.820118e+23 -1.694592e+21 4.724339e+21 1.211144e+23 -3.247967e+19 -3.247967e+19 6.861240e+18 2.317180e+23 1.401238e+23 1.401238e+23 -1.043836e+23 9.975637e+19 9.975637e+19 9.975637e+19 2.148590e+19 -2.541403e+20 -2.604511e+19 4.218724e+20 -2.674965e+19 -2.674965e+19 -2.112801e+21 7.172848e+22 -7.364359e+21 -7.364359e+21 -1.434968e+22 -4.290120e+21 -4.290120e+21 -4.290120e+21 4.763818e+22 3.609808e+22 8.512901e+20 -3.523083e+22 4.545714e+22 -1.911037e+20 -4.544272e+21 -1.726112e+21 -2.558674e+22 1.599270e+21 1.215794e+21 4.186087e+21 -2.999434e+20 9.423819e+22 9.423819e+22 9.423819e+22 2.019295e+22 1.378468e+21 2.598119e+22 5.826645e+22 2.019295e+22 2.652815e+22 -7.011802e+22 -7.797252e+20 -1.733729e+20 -5.245489e+20 6.909836e+19 -3.353120e+22 -3.353120e+22 -3.353120e+22 -1.391204e+21 -4.361198e+22 -4.361198e+22 -3.645457e+21 -3.645457e+21 -4.371496e+19 2.494588e+23 3.803302e+21 5.258556e+18 5.258556e+18 5.258556e+18 -5.705025e+19 -5.104398e+21 -5.104398e+21 5.112671e+19 -1.255144e+20 8.213939e+20 2.123037e+23 3.107406e+21 3.107406e+21 3.107406e+21 -1.706655e+22 -1.706655e+22 -1.706655e+22 1.853013e+22 1.688610e+19 6.610329e+22 6.610329e+22 -2.143168e+23 -2.143168e+23 -2.143168e+23 -9.156318e+23 3.247599e+20 3.247599e+20 3.247599e+20 -2.267853e+21 -2.267853e+21 -2.267853e+21 1.371115e+21 1.229882e+19 1.820382e+19 -3.086392e+20 -3.086392e+20 -3.086392e+20 1.074990e+20 -5.233476e+18 -5.233476e+18 -4.798214e+21 4.903279e+20 -4.240732e+23 -6.564465e+19 -8.676669e+18 -1.155295e+21 -3.523692e+21 1.612454e+20 -2.046743e+21 -2.689814e+21 -2.689814e+21 -1.067811e+22 5.735834e+21 7.556051e+19 4.713946e+19 1.538594e+20 -6.208009e+18 -2.242373e+19 -1.702340e+20 -1.702340e+20 1.217174e+20 -4.268932e+20 -1.600427e+20 -5.740384e+20 -8.983717e+17 -2.255135e+21 5.563127e+21 5.563127e+21 4.316803e+21 4.316803e+21 -1.094351e+21 -1.094351e+21 -1.094351e+21 -5.773784e+20 -5.773784e+20 -2.754750e+20 -1.922546e+21 -5.258815e+20 -5.258815e+20 -3.612713e+20 -1.958142e+19 -4.792392e+20 -9.038147e+19 -9.038147e+19 1.699616e+20 7.493588e+19 -3.817112e+20 -3.817112e+20 -5.081154e+20 -5.319038e+20 -1.155295e+21 -1.155295e+21 1.020557e+18 5.229850e+19 5.229850e+19 5.229850e+19 -9.686113e+16 -4.236954e+20 -2.499892e+20 6.214473e+18 6.214473e+18 6.214473e+18 -7.757099e+18 -1.842595e+17 -9.883589e+20 -1.254782e+18 2.546361e+20 2.508369e+18 2.508369e+18 2.508369e+18 -3.686405e+19 -1.204951e+20 -4.823187e+19 -4.823187e+19 -4.823187e+19 4.368345e+20 -1.742807e+21 -1.489118e+20 -1.489118e+20 -3.734754e+17 -1.723090e+21 -1.723090e+21 -1.723090e+21 -1.744950e+21 -1.744950e+21 -9.954835e+19 -6.310527e+20 -6.310527e+20 -7.909713e+20 -4.498275e+19 -4.498275e+19 2.572222e+18 -6.618361e+19 -6.618361e+19 -6.618361e+19 -2.257493e+20 -2.257493e+20 -2.257493e+20 -2.013170e+16 -2.013170e+16 -6.545419e+15 1.820914e+20 -3.391058e+20 -3.391058e+20 -5.732099e+15 2.262177e+18 2.262177e+18 -2.509982e+17 -2.509982e+17 2.640524e+20 -3.545119e+19 8.125471e+19 8.125471e+19 -1.551494e+21 -1.551494e+21 1.217720e+17 1.217720e+17 -5.138192e+16 3.180714e+18 3.180714e+18 -2.531948e+18 -2.531948e+18 -3.248077e+18 2.456748e+19 -2.233301e+20 3.383248e+20 3.383248e+20 1.537511e+18 -7.096294e+16 9.582832e+17 -3.518809e+18 -3.518809e+18 2.627088e+18 5.761612e+17 5.761612e+17 -1.201894e+20 -1.201894e+20 7.965679e+18 -1.850255e+19 -1.850255e+19 -1.850255e+19 -3.187035e+18 -3.187035e+18 -1.239215e+20 2.643389e+18 2.643389e+18 3.985584e+17 3.985584e+17 2.042301e+18 -2.930533e+18 -1.122027e+17 -6.850989e+18 1.281079e+19 -2.140845e+19 -2.140845e+19 -1.035376e+19 -1.035376e+19 -2.157554e+15 -2.157554e+15 8.617764e+19 7.347285e+17 7.347285e+17 -2.997985e+15 -3.788195e+18 -3.788195e+18 -3.190959e+18 -3.190959e+18 -1.149172e+17 1.605643e+18 1.605643e+18 6.773978e+16 6.773978e+16 2.742105e+17 2.742105e+17 -7.029057e+15 4.474699e+17 4.474699e+17 -2.414455e+18 -1.090795e+18 1.363369e+16 1.111276e+18 9.115451e+17 -1.558494e+19 7.381722e+18 -1.170842e+18 -1.170842e+18 3.568538e+18 -1.969037e+17 -1.969037e+17 -2.189374e+17 -1.507307e+18 -4.124298e+18 7.706160e+18 7.706160e+18 2.522123e+16 2.522123e+16 -1.001096e+18 -2.562619e+18 1.363074e+17 1.363074e+17 8.347771e+16 8.347771e+16 -3.182467e+18 6.794855e+16 6.794855e+16 6.794855e+16 3.408776e+17 3.408776e+17 2.395224e+17 -1.543224e+17 9.014166e+15 9.014166e+15 9.770922e+16 9.770922e+16 2.702745e+17 3.670904e+16 -1.286638e+18 2.120035e+17 -1.925045e+14 -2.802127e+14 -6.451893e+15 2.658210e+13 -3.147262e+15 -3.289926e+14 -3.595699e+13 -3.920741e+14 -1.167997e+15 -1.364425e+14 3.777209e+15 4.743965e+11 6.062083e+11 6.062083e+11 -4.026160e+13 -1.538906e+13 4.150011e+15 5.853340e+13 -1.178821e+12 2.841928e+14 2.841928e+14 8.152239e+13 8.152239e+13 1.152194e+12 1.152194e+12 -2.461308e+11 1.093228e+11 1.093228e+11 1.093228e+11 1.907267e+11 1.907267e+11 1.464749e+15 1.464749e+15 1.464749e+15 1.047492e+16 1.047492e+16 4.003600e+17 3.414908e+17 -2.217538e+12 4.003600e+17 4.003600e+17 9.667511e+19 -3.695746e+17 2.765908e+16 7.740059e+15 -4.387444e+15 -5.673125e+15 3.582329e+15 1.932060e+15 -1.151327e+14 -1.151327e+14 -1.547180e+11 2.411639e+20 -2.217538e+12 1.876728e+17 -3.109615e+16 3.630525e+12 -2.771010e+17 -2.771010e+17 -1.674531e+16 2.095390e+17 -1.674531e+16 2.508451e+12 1.463668e+15 1.540764e+11 -4.204577e+11 1.392552e+12 1.392552e+12 1.698196e+10 1.346790e+26 1.346790e+26 2.283154e+26 3.586806e+26 6.969898e+26 5.090705e+26 2.290090e+26 6.821057e+25 1.049337e+27 8.039841e+26 6.407067e+26 3.453381e+26 5.146377e+25 3.069706e+26 4.986412e+26 1.718246e+26 1.451078e+26 2.501446e+26 5.088671e+26 6.531429e+26 1.792511e+26 2.609941e+26 2.605012e+26 3.069279e+26 1.890848e+26 1.986370e+26 1.024335e+27 7.664230e+26 2.947101e+26 1.785427e+26 5.391675e+26 6.458061e+26 1.487381e+26 -1.293660e+25 1.897185e+26 2.478125e+26 2.469783e+26 1.327654e+26 7.377605e+25 2.506057e+26 1.666632e+26 2.654752e+26 7.052350e+25 1.485373e+26 1.197685e+26 1.284479e+26 9.614462e+25 1.867347e+25 3.980400e+25 8.365917e+25 6.968338e+25 8.492598e+25 6.810675e+25 5.486402e+25 8.264950e+24 1.298585e+25 6.081303e+24 1.774079e+25 1.250646e+25 1.316979e+25 2.100420e+25 9.170200e+24 2.570151e+24 1.158986e+25 1.629528e+25 7.148467e+24 -1.134855e+23 4.585886e+24 7.646038e+24 5.490592e+24 1.211764e+24 3.938287e+24 3.590905e+24 1.134950e+24 4.197892e+21 7.748353e+23 5.554584e+23 7.333112e+23 7.350865e+23 7.456475e+23 -2.160298e+22 7.651910e+22 1.086475e+23 5.859273e+22 4.311172e+22 1.722600e+22 1.099686e+22 8.176830e+21 -1.666673e+21 -2.954198e+21 -1.411278e+21 9.814355e+20 5.191870e+21 4.476893e+21 6.892860e+21 2.158718e+22 1.613008e+22 3.441738e+22 -2.758003e+22 7.089403e+23 1.206881e+24 1.047545e+24 1.841024e+23 3.224081e+24 5.859861e+24 2.212462e+24 3.483785e+24 6.865379e+24 8.150769e+24 9.546579e+24 6.969363e+24 4.960334e+24 1.338609e+23 3.313689e+24 1.636501e+25 1.413111e+25 1.171262e+25 2.158926e+25 1.175509e+24 2.227759e+25 3.545282e+25 7.230500e+25 7.284134e+25 1.117596e+26 1.707161e+25 4.895833e+25 1.148382e+26 1.127736e+26 1.569678e+26 1.647245e+26 3.743603e+25 2.691511e+25 2.065772e+26 1.682816e+26 5.751641e+25 9.804406e+25 2.052644e+26 7.504905e+25 5.776575e+25 1.238628e+26 2.724176e+24 1.372627e+26 2.885382e+26 2.868052e+26 1.407087e+26 3.252300e+26 1.448324e+26 5.825202e+26 4.556033e+26 4.724898e+26 2.162772e+25 9.535047e+25 2.880993e+26 2.383444e+26 3.242277e+26 3.442861e+26 6.607954e+25 7.453732e+25 2.372352e+26 5.060296e+26 1.968056e+26 3.474689e+26 4.725267e+26 3.172710e+26 2.959200e+26 1.171809e+26 8.271648e+25 3.740224e+26 1.431276e+26 3.232198e+25 4.517365e+26 9.363186e+26 7.806471e+26 5.945343e+26 1.084789e+27 9.779836e+26 5.658380e+26 1.434952e+26 9.318531e+26 9.367071e+26 5.578362e+26 -5.073559e+09 -5.073559e+09 -5.073559e+09 4.646276e+10 4.646276e+10 4.646276e+10 1.240107e+11 1.087218e+11 2.162707e+12 2.920614e+11 1.497255e+13 1.497255e+13 1.497255e+13 -5.349746e+12 -6.890426e+15 -6.890426e+15 -6.890426e+15 -7.203988e+15 -6.740681e+15 -4.193188e+21 -4.193188e+21 -4.193188e+21 -3.958638e+21 -4.648827e+21 -4.648827e+21 -4.648827e+21 9.257819e+21 -4.322852e+18 -4.322852e+18 -4.322852e+18 5.189363e+19 4.464603e+18 3.096636e+19 5.332525e+21 5.332525e+21 5.332525e+21 1.291370e+22 1.291370e+22 -1.534065e+23 -1.534065e+23 -1.534065e+23 -4.457307e+22 -1.179707e+23 -1.179707e+23 -1.179707e+23 7.232498e+23 7.232498e+23 3.827481e+24 3.827481e+24 3.827481e+24 4.287213e+22 4.287213e+22 4.287213e+22 4.888115e+22 2.102016e+20 2.102016e+20 2.102016e+20 4.975823e+24 4.975823e+24 4.975823e+24 3.388676e+25 3.203433e+25 3.203433e+25 2.338626e+23 2.338626e+23 1.181551e+24 1.181551e+24 -3.305532e+23 -4.473021e+25 -4.473021e+25 -4.473021e+25 -3.297807e+24 -3.297807e+24 1.787257e+25 1.787257e+25 1.787257e+25 6.786576e+24 6.786576e+24 -1.674536e+15 -1.674536e+15 -1.674536e+15 1.056245e+17 1.056245e+17 -1.131767e+22 -1.131767e+22 8.669728e+22 8.669728e+22 8.669728e+22 3.249272e+22 3.513520e+21 3.513520e+21 3.513520e+21 -6.664114e+20 -5.398962e+20 1.165506e+21 1.165506e+21 1.165506e+21 9.128375e+22 9.128375e+22 -2.508946e+23 2.478125e+26 9.369396e+24 9.369396e+24 5.945343e+26 7.175282e+24 7.175282e+24 1.211901e+22 1.707161e+25 2.589214e+25 2.218275e+11 -7.413168e+12 -7.413168e+12 -7.413168e+12 -6.142131e+12 -1.510649e+15 -5.050491e+14 -5.050491e+14 -5.050491e+14 -1.273999e+15 -1.273999e+15 -1.608201e+18 -1.608201e+18 -1.608201e+18 -7.082458e+17 1.618625e+19 1.618625e+19 1.618625e+19 1.573987e+19 2.271505e+20 1.941108e+21 1.922407e+20 -8.344584e+21 -8.344584e+21 -3.348857e+16 -3.348857e+16 -3.348857e+16 -2.381325e+16 4.678684e+21 4.678684e+21 4.678684e+21 -1.588171e+21 -1.588171e+21 -1.777421e+21 -3.296810e+21 -3.296810e+21 -3.296810e+21 -2.766632e+21 -6.388317e+20 -6.388317e+20 -6.388317e+20 -5.438850e+20 -5.965184e+20 7.206635e+20 7.206635e+20 7.206635e+20 8.034413e+20 4.186087e+21 -3.143298e+22 -5.762509e+20 -5.762509e+20 -5.762509e+20 -4.189972e+20 -3.723488e+22 -3.723488e+22 -3.723488e+22 -2.808196e+22 2.310799e+22 2.310799e+22 2.310799e+22 -6.247327e+21 -6.247327e+21 -3.534008e+23 -3.534008e+23 -3.534008e+23 -7.233455e+23 3.438488e+23 3.438488e+23 3.438488e+23 3.438607e+23 2.867858e+23 2.867858e+23 2.867858e+23 4.120660e+25 -1.861530e+24 -1.861530e+24 1.645263e+23 2.685244e+21 2.685244e+21 2.354174e+21 2.354174e+21 2.354174e+21 5.419412e+21 5.419412e+21 5.419412e+21 2.137935e+20 -1.351650e+27 -1.351650e+27 -1.351650e+27 6.927609e+25 6.927609e+25 -2.188290e+25 -2.188290e+25 -2.188290e+25 -1.089519e+25 -1.089519e+25 1.640306e+21 6.277675e+24 6.277675e+24 -1.757963e+24 6.172815e+25 6.172815e+25 6.172815e+25 3.207215e+25 -1.544001e+24 -1.544001e+24 -1.767271e+25 -1.767