<?xml version="1.0"?>
 <VTKFile type="UnstructuredGrid" version="1.0" byte_order="LittleEndian" header_type="UInt64">
  <UnstructuredGrid>
    <FieldData>
     <DataArray type="Float64" Name="TimeValue" NumberOfTuples="1" format="ascii">
4e-08
     </DataArray>
    </FieldData>
   <Piece NumberOfPoints="3662" NumberOfCells="3444">
    <PointData>
     <DataArray type="Float64" Name="pointP" format="ascii">
4.719642e+25 1.581197e+27 1.589887e+27 1.307559e+27 1.462537e+27 7.476844e+26 6.644674e+26 2.899555e+26 3.665151e+26 4.892730e+26 6.344712e+26 7.746328e+26 2.953091e+26 5.446973e+26 1.070634e+27 1.671773e+27 5.038382e+26 3.079342e+26 5.149718e+26 2.740534e+26 3.072245e+26 2.948142e+25 6.602749e+26 1.406370e+26 2.590828e+27 2.974224e+27 2.603844e+26 5.558457e+26 4.002053e+26 1.630868e+26 4.068879e+26 8.137440e+26 5.800138e+26 7.955555e+26 3.255933e+26 6.771906e+25 5.454959e+26 3.878053e+26 -1.840551e+25 4.991755e+25 1.635244e+26 1.582132e+26 4.247156e+25 7.078422e+25 3.518027e+26 2.050822e+26 9.744063e+25 2.047805e+25 7.675504e+25 1.418503e+26 2.305132e+26 2.602872e+26 1.577061e+26 2.724957e+24 7.301933e+25 2.581456e+25 3.760927e+25 1.378924e+26 1.497806e+26 1.909550e+26 2.385874e+26 6.041591e+25 5.111100e+24 1.904624e+25 8.766623e+24 1.142909e+25 1.061741e+25 2.629666e+25 2.328515e+25 4.222172e+24 4.259799e+24 2.804080e+25 2.660679e+25 3.456568e+25 4.546885e+25 2.188155e+25 1.496723e+25 7.135655e+24 3.671900e+24 1.255717e+24 5.855894e+24 3.084405e+24 3.329146e+23 1.731178e+24 1.376891e+24 9.498084e+23 5.223018e+23 4.132710e+23 7.238907e+23 5.404246e+23 5.815286e+23 1.884228e+22 1.661615e+23 3.587679e+21 4.888815e+22 7.453510e+22 5.384856e+21 1.400151e+19 1.108011e+19 2.386466e+21 -1.159250e+23 4.289297e+20 1.302785e+21 1.450600e+22 -4.259829e+21 1.507584e+23 1.855608e+23 6.164644e+23 6.628306e+23 4.038413e+23 -1.695916e+22 4.822091e+23 6.413948e+23 1.291633e+24 1.057156e+24 1.908278e+23 1.340786e+24 2.118729e+24 3.119594e+24 3.129775e+24 3.684658e+24 1.436740e+24 2.701163e+24 2.701163e+24 3.880530e+11 -2.749638e+13 2.959023e+11 -1.149542e+09 1.634956e+09 5.667360e+10 -7.313634e+10 -7.313634e+10 6.155686e+09 -7.336106e+10 7.186640e+11 7.186640e+11 5.631348e+11 5.631348e+11 3.230760e+13 -9.084669e+12 -5.617798e+12 -2.813761e+13 1.808461e+14 -1.107540e+14 -1.107540e+14 -1.748831e+15 -1.748831e+15 6.115572e+15 -8.455728e+15 5.898831e+16 -1.086245e+17 -3.614692e+16 2.252245e+17 4.424371e+18 9.239390e+18 -1.148032e+18 -2.298654e+17 2.060425e+19 2.996077e+20 -3.179924e+19 -8.425278e+20 -8.425278e+20 -4.699372e+20 1.066290e+21 1.066290e+21 7.334822e+21 4.513240e+22 4.513240e+22 3.197866e+23 5.613188e+22 5.613188e+22 5.315889e+21 1.720971e+22 -2.279514e+23 -2.279514e+23 1.098985e+25 2.756466e+24 6.116537e+24 3.907342e+24 7.676932e+24 4.023629e+11 -2.732557e+14 -2.732557e+14 -2.732557e+14 5.564200e+15 -1.502607e+16 -1.502607e+16 -1.502607e+16 3.161384e+13 3.161384e+13 -6.634364e+15 -6.634364e+15 -6.634364e+15 -1.132896e+16 -9.918946e+15 5.440067e+13 7.361510e+13 7.361510e+13 -1.260899e+14 -2.813431e+14 -2.813431e+14 -2.813431e+14 -1.520463e+13 -2.559793e+14 1.324376e+23 1.324376e+23 1.324376e+23 2.000735e+23 -4.979521e+11 -4.979521e+11 -4.979521e+11 3.370837e+11 2.098560e+12 2.098560e+12 -3.125881e+14 -3.125881e+14 2.681322e+13 -4.182540e+13 4.023629e+11 4.023629e+11 1.241461e+11 1.241461e+11 1.241461e+11 1.756414e+12 1.467909e+11 1.467909e+11 2.016496e+12 3.419740e+15 3.419740e+15 3.419740e+15 3.267035e+16 5.075171e+16 9.159370e+16 6.291950e+16 7.782142e+15 7.782142e+15 7.782142e+15 -1.973063e+15 -4.657138e+15 -3.506884e+13 6.444284e+17 -3.506884e+13 1.320065e+19 1.320065e+19 1.320065e+19 -6.987043e+20 -6.987043e+20 -6.987043e+20 -4.332965e+20 -7.742428e+19 -2.531842e+20 -7.742428e+19 -7.742428e+19 4.257906e+20 4.257906e+20 4.257906e+20 3.122736e+21 1.140911e+23 1.140911e+23 1.140911e+23 1.780368e+23 -3.249025e+23 -3.249025e+23 -3.249025e+23 -2.801382e+22 -2.801382e+22 2.270982e+21 2.270982e+21 2.270982e+21 7.863908e+20 6.437572e+19 6.437572e+19 6.437572e+19 -1.387837e+21 -1.387837e+21 1.311505e+24 1.311505e+24 1.311505e+24 3.905280e+23 -7.006348e+20 -7.006348e+20 -7.006348e+20 -8.264918e+20 -8.264918e+20 9.915378e+22 -7.172972e+21 8.047219e+23 8.047219e+23 8.047219e+23 1.505232e+24 9.349522e+25 9.349522e+25 9.349522e+25 1.734506e+25 1.734506e+25 -9.475844e+23 -9.475844e+23 -9.475844e+23 -2.679331e+23 5.318564e+24 5.318564e+24 5.318564e+24 2.678066e+24 1.291633e+24 1.231544e+24 1.231544e+24 1.231544e+24 -1.971889e+23 -1.971889e+23 -1.971889e+23 2.012143e+25 -4.041359e+22 -4.041359e+22 -4.041359e+22 4.853032e+23 1.400151e+19 -1.717398e+19 -1.717398e+19 -1.717398e+19 4.863635e+20 1.952275e+21 1.952275e+21 1.952275e+21 -7.365203e+21 -7.365203e+21 -7.172972e+21 -7.172972e+21 9.915378e+22 -3.705136e+23 -3.705136e+23 -3.705136e+23 1.764541e+24 1.764541e+24 -4.533462e+20 -1.582252e+20 -1.582252e+20 -3.074477e+21 -3.074477e+21 -3.074477e+21 -2.877420e+22 -2.877420e+22 -1.552464e+21 -1.552464e+21 -1.552464e+21 1.357508e+22 -5.512363e+18 7.533082e+19 -5.512363e+18 -5.512363e+18 5.322046e+18 -9.174467e+15 -9.174467e+15 -9.174467e+15 7.779270e+15 1.381684e+17 1.619149e+15 1.619149e+15 5.905016e+16 5.905016e+16 2.768534e+17 2.768534e+17 -7.671389e+16 -7.671389e+16 -7.671389e+16 1.780796e+18 1.780796e+18 3.172452e+12 3.172452e+12 3.172452e+12 -6.593372e+12 3.599512e+13 8.607324e+15 1.310353e+15 -1.760019e+19 -1.760019e+19 -1.760019e+19 -1.313848e+18 -2.523754e+20 -2.523754e+20 -2.523754e+20 -1.843345e+20 -7.877274e+18 -7.877274e+18 -7.877274e+18 -1.014648e+21 -1.014648e+21 -1.014648e+21 2.344041e+14 2.344041e+14 2.344041e+14 -8.270406e+21 -8.270406e+21 -8.270406e+21 1.685744e+21 1.685744e+21 1.685744e+21 8.261885e+20 8.585791e+20 3.344706e+18 3.344706e+18 3.344706e+18 -8.866370e+19 -8.866370e+19 -5.805550e+19 -1.684550e+20 -1.684550e+20 -1.684550e+20 -9.695325e+20 9.987245e+19 9.987245e+19 9.987245e+19 9.050505e+19 -2.629773e+20 -2.629773e+20 -5.253456e+22 -5.253456e+22 -5.253456e+22 -3.288147e+22 -1.611815e+21 -1.611815e+21 -1.611815e+21 -5.463224e+20 1.739469e+20 1.739469e+20 1.739469e+20 -2.939699e+19 -1.226119e+23 -1.226119e+23 -1.226119e+23 -1.422850e+22 -1.422850e+22 -1.422850e+22 -5.544330e+21 3.875616e+20 3.875616e+20 3.875616e+20 1.445902e+21 -1.056496e+22 -1.056496e+22 -1.056496e+22 7.009640e+19 -3.264079e+21 -3.264079e+21 -3.264079e+21 -1.357310e+22 1.010834e+25 1.010834e+25 1.010834e+25 -5.621633e+25 -5.621633e+25 -5.621633e+25 -7.738691e+25 2.187934e+25 2.187934e+25 2.187934e+25 2.200183e+25 4.422152e+25 4.422152e+25 7.514302e+24 5.401485e+24 5.401485e+24 -3.425759e+23 9.366454e+22 9.366454e+22 -4.745504e+20 -3.074755e+22 -3.074755e+22 -3.074755e+22 -1.742384e+22 -1.870669e+23 -1.870669e+23 -1.870669e+23 9.638038e+24 9.638038e+24 4.118577e+25 -3.458936e+23 -3.458936e+23 8.142639e+24 1.544371e+22 8.574788e+25 1.511258e+26 1.585123e+21 1.585123e+21 1.892335e+21 4.383696e+24 4.383696e+24 4.383696e+24 2.448086e+26 1.798466e+24 1.798466e+24 -2.878954e+24 -2.878954e+24 -2.878954e+24 3.149305e+24 3.149305e+24 3.149305e+24 2.249108e+23 2.249108e+23 2.443426e+24 2.443426e+24 2.443426e+24 -2.082148e+23 2.201191e+25 2.201191e+25 2.201191e+25 3.852383e+24 3.852383e+24 1.242913e+20 1.242913e+20 1.242913e+20 4.510846e+19 4.510846e+19 -1.040783e+23 -1.040783e+23 -5.170697e+24 -5.170697e+24 3.270161e+24 3.270161e+24 3.270161e+24 5.399656e+23 5.399656e+23 5.399656e+23 1.851695e+24 -1.536216e+20 -1.536216e+20 -1.536216e+20 3.118289e+19 3.118289e+19 4.140695e+21 4.140695e+21 4.140695e+21 -3.226062e+21 -3.226062e+21 -9.625179e+19 -9.625179e+19 -9.625179e+19 1.082236e+21 1.082236e+21 3.971946e+21 3.971946e+21 3.971946e+21 3.469147e+22 3.469147e+22 -7.387918e+21 -7.387918e+21 -7.387918e+21 -1.323472e+22 1.491308e+21 1.491308e+21 6.454485e+22 6.454485e+22 6.454485e+22 -3.496812e+21 -3.496812e+21 9.750190e+18 9.750190e+18 9.750190e+18 -1.881800e+18 -1.881800e+18 2.507392e+17 2.507392e+17 2.507392e+17 -1.647286e+19 -1.647286e+19 1.221932e+17 1.221932e+17 -1.401860e+16 -1.401860e+16 -8.146734e+18 -8.146734e+18 4.278795e+18 4.278795e+18 9.451954e+17 2.398112e+16 2.398112e+16 -3.831933e+17 -3.831933e+17 -3.831933e+17 9.547930e+18 9.547930e+18 1.163391e+17 1.163391e+17 -5.125152e+15 -5.125152e+15 -5.125152e+15 7.101116e+15 2.782658e+15 -3.908591e+13 -1.517251e+14 3.897192e+16 3.897192e+16 3.897192e+16 1.096390e+16 1.096390e+16 4.140458e+18 4.140458e+18 1.416228e+19 2.011413e+19 3.831398e+19 1.081341e+21 1.081341e+21 1.081341e+21 4.993029e+21 4.034272e+22 4.034272e+22 2.709217e+23 -3.541234e+22 -3.541234e+22 -3.541234e+22 -7.682111e+22 -7.682111e+22 -7.682111e+22 -5.772236e+23 -9.442281e+24 -9.238161e+23 -9.238161e+23 -9.238161e+23 4.153986e+23 9.092907e+22 2.276746e+23 2.276746e+23 -2.992345e+23 -2.992345e+23 1.061741e+25 2.892400e+23 2.892400e+23 2.892400e+23 -1.771336e+23 -1.771336e+23 -1.771336e+23 1.144989e+26 1.589887e+27 2.019803e+25 2.019803e+25 -6.320967e+25 -6.320967e+25 -6.320967e+25 2.861439e+26 -6.081106e+21 -6.081106e+21 3.964253e+21 7.453510e+22 3.825686e+26 3.825686e+26 -5.401581e+25 -5.401581e+25 7.244478e+22 7.244478e+22 2.216843e+22 2.216843e+22 2.216843e+22 6.755327e+26 6.755327e+26 3.910814e+26 9.594583e+23 9.594583e+23 1.215729e+23 -2.374136e+25 1.422052e+26 2.047877e+26 2.047877e+26 2.448076e+25 1.110339e+26 1.110339e+26 1.110339e+26 1.269680e+25 2.602872e+26 1.655429e+26 1.307559e+27 -1.168304e+26 -1.336000e+25 -1.336000e+25 -4.704328e+24 -4.704328e+24 -4.704328e+24 5.280704e+25 1.712557e+21 1.712557e+21 9.898169e+20 9.898169e+20 -1.454404e+24 -7.562262e+25 -7.562262e+25 -1.908848e+25 -1.553275e+22 -1.553275e+22 -1.553275e+22 4.822091e+23 2.899555e+26 -2.448765e+25 1.201769e+24 1.201769e+24 1.201769e+24 -1.023660e+24 -3.623210e+22 -3.623210e+22 -4.761675e+22 -3.822130e+23 -3.822130e+23 3.263758e+25 1.292861e+22 1.292861e+22 -3.955212e+22 -3.955212e+22 2.516991e+26 -1.840551e+25 -3.244318e+25 -3.333622e+24 -3.489118e+24 -3.489118e+24 -1.199876e+25 5.266104e+23 2.266922e+23 2.266922e+23 5.051623e+21 5.051623e+21 2.262023e+20 2.262023e+20 6.984801e+24 6.984801e+24 6.922677e+24 -3.601063e+25 -3.610729e+23 -3.610729e+23 2.436384e+24 -2.287095e+25 -2.287095e+25 -2.287095e+25 -4.550256e+25 -4.550256e+25 4.472277e+20 -2.037664e+22 -2.037664e+22 4.550098e+25 2.998267e+25 1.787265e+26 -1.087184e+24 1.436740e+24 3.684658e+24 2.230889e+25 -1.415030e+24 9.915649e+23 9.915649e+23 9.915649e+23 -1.380963e+23 -2.099204e+25 4.589699e+22 1.068130e+22 1.068130e+22 2.047805e+25 9.110807e+24 2.593759e+21 2.593759e+21 1.167796e+25 1.167796e+25 9.650922e+22 9.650922e+22 2.963943e+21 1.915047e+21 1.915047e+21 2.117265e+20 2.610422e+21 -1.232694e+23 7.360622e+23 -5.645155e+23 -5.645155e+23 7.845616e+23 7.845616e+23 2.794714e+20 6.973107e+22 -9.563411e+25 1.811531e+24 -3.299819e+22 -5.808913e+24 1.851393e+25 -2.071138e+23 6.003285e+16 -3.502138e+17 5.034084e+18 1.149359e+25 6.481236e+24 7.079003e+24 7.079003e+24 -3.504210e+23 8.713158e+23 7.170676e+25 8.135592e+21 5.452943e+24 5.452943e+24 -4.843123e+23 -4.843123e+23 -4.843123e+23 -3.011639e+21 3.014265e+23 4.405401e+22 6.886496e+24 8.492176e+24 5.712887e+24 5.712887e+24 5.712887e+24 -9.948008e+22 -9.948008e+22 -9.948008e+22 1.759866e+24 1.504548e+25 3.787418e+25 1.545923e+25 -5.169606e+21 -5.169606e+21 -5.169606e+21 1.277742e+24 1.277742e+24 1.277742e+24 5.054831e+24 1.221822e+24 1.221822e+24 1.600742e+24 -2.452578e+23 5.225404e+22 4.086166e+22 -1.523541e+20 -4.245408e+20 -4.245408e+20 7.667089e+21 1.064337e+22 1.064337e+22 -1.180670e+21 -1.180670e+21 1.582796e+21 2.511059e+25 -4.634857e+21 2.580124e+24 2.054572e+24 -7.184546e+25 -7.184546e+25 1.527754e+25 1.527754e+25 -1.952420e+25 3.130351e+24 -1.277461e+23 2.653699e+24 2.653699e+24 -1.028020e+24 -1.028020e+24 6.571376e+24 2.033774e+23 2.033774e+23 2.033774e+23 1.823166e+24 1.672618e+23 8.224503e+21 8.224503e+21 8.224503e+21 7.751291e+21 7.751291e+21 4.273833e+24 3.463213e+24 5.775319e+24 5.775319e+24 2.946727e+25 1.589175e+21 2.793113e+22 7.510854e+22 7.510854e+22 1.570734e+23 3.286567e+24 4.018317e+24 -9.827583e+20 -9.827583e+20 -9.827583e+20 1.937883e+21 1.361721e+26 1.361721e+26 4.456205e+25 -9.200869e+25 -1.610328e+24 -1.610328e+24 8.079679e+19 8.079679e+19 8.079679e+19 4.827294e+21 1.597395e+21 4.427741e+21 9.501862e+19 9.501862e+19 8.646039e+22 4.308871e+22 4.308871e+22 4.065030e+23 3.232370e+23 -2.344560e+23 -2.344560e+23 8.702677e+23 8.702677e+23 2.556716e+23 4.809156e+22 4.809156e+22 -5.699681e+20 4.388068e+21 4.388068e+21 -7.498435e+23 -4.638782e+23 -1.310746e+25 1.349008e+24 -3.725979e+20 -3.725979e+20 -3.725979e+20 1.456414e+20 3.946434e+24 2.566675e+24 3.747867e+22 3.747867e+22 1.920216e+23 1.920216e+23 1.920216e+23 7.434526e+23 7.434526e+23 7.434526e+23 1.334145e+22 -3.717495e+17 5.461788e+22 5.461788e+22 5.461788e+22 4.579693e+21 4.073927e+25 -3.398549e+19 2.580173e+20 2.746160e+23 1.671709e+23 1.671709e+23 1.969112e+24 7.360442e+23 1.783731e+24 -5.874925e+23 -5.874925e+23 2.688692e+23 -2.216534e+22 -2.216534e+22 -5.847259e+24 -2.607195e+24 2.746110e+23 1.122744e+24 1.122744e+24 -5.078909e+23 4.286817e+22 4.286817e+22 6.300545e+22 6.300545e+22 1.964720e+24 1.964720e+24 2.011725e+22 2.011725e+22 -1.057286e+20 -3.950984e+23 -7.156922e+23 1.094714e+23 1.094714e+23 2.291650e+23 8.556600e+20 -1.368018e+24 9.001346e+23 8.920754e+22 8.920754e+22 -1.129445e+21 6.778213e+20 1.246842e+22 -5.250124e+23 -2.956932e+23 -2.956932e+23 -2.408530e+20 1.334440e+23 1.334440e+23 1.363443e+24 4.950589e+21 4.950589e+21 4.950589e+21 1.940661e+20 2.747206e+22 1.693133e+21 1.693133e+21 1.509404e+21 -3.350051e+22 -3.350051e+22 2.699183e+22 -6.398295e+23 -6.398295e+23 -6.398295e+23 -1.108862e+22 -6.342200e+23 4.510804e+22 3.675425e+21 8.820338e+23 -1.508795e+22 -2.683325e+21 -2.683325e+21 5.602617e+20 1.765672e+20 1.765672e+20 -1.125119e+21 -1.659347e+21 6.300388e+19 9.909052e+19 9.909052e+19 -2.458916e+23 -2.458916e+23 -2.458916e+23 6.759719e+23 -1.482244e+23 -1.482244e+23 1.643212e+21 -2.266815e+23 -1.717376e+23 -3.427198e+22 -3.427198e+22 -6.428909e+21 -6.428909e+21 2.505855e+20 9.018325e+23 9.018325e+23 9.893812e+18 -1.892415e+23 5.005567e+23 5.005567e+23 -1.889928e+22 -1.889928e+22 -6.393353e+22 -6.393353e+22 9.547034e+22 8.438898e+21 4.202119e+20 2.160466e+22 2.406293e+23 2.406293e+23 9.101542e+23 5.449498e+22 5.449498e+22 -1.599130e+22 -1.599130e+22 -7.769958e+21 -6.248900e+21 1.863574e+21 -3.842607e+20 3.941945e+21 -4.520905e+21 2.285223e+20 -1.323370e+22 -1.323370e+22 -1.323370e+22 -2.190624e+23 -2.190624e+23 7.090601e+23 -4.306751e+19 -4.306751e+19 -4.306751e+19 6.617219e+20 6.617219e+20 9.277059e+22 9.277059e+22 1.766545e+23 -3.340715e+22 1.157740e+24 6.923353e+21 -4.720888e+22 -4.720888e+22 5.818242e+21 1.588143e+22 1.862882e+22 1.862882e+22 -4.333233e+21 -6.887350e+18 -6.887350e+18 -6.887350e+18 -8.903589e+18 4.795023e+22 2.888400e+21 -5.808052e+20 9.072204e+20 2.624822e+21 2.739077e+22 -1.313746e+22 1.393700e+20 2.629205e+23 -5.535223e+22 -5.535223e+22 -5.535223e+22 4.206270e+22 -1.630128e+20 1.321716e+24 1.444840e+22 2.846868e+22 1.631465e+22 1.631465e+22 1.631465e+22 5.335396e+20 5.335396e+20 5.335396e+20 -1.723587e+21 -1.723587e+21 6.056473e+22 -2.837429e+22 -2.837429e+22 -2.837429e+22 -1.942982e+20 -5.872971e+21 -5.872971e+21 -5.872971e+21 2.093023e+22 7.206986e+21 7.206986e+21 7.206986e+21 4.125277e+19 4.125277e+19 4.125277e+19 1.055831e+22 -1.331437e+18 4.830252e+22 4.830252e+22 -4.849911e+21 4.921458e+23 6.131512e+20 -3.963933e+19 -3.963933e+19 -3.963933e+19 -1.838368e+21 4.925702e+22 -3.434294e+22 -2.526004e+19 1.224142e+19 2.847942e+21 -6.246809e+19 -1.213405e+22 -1.213405e+22 -4.530657e+22 -6.883194e+22 -4.616220e+21 -7.487202e+20 1.218468e+23 5.927099e+18 5.927099e+18 -5.857029e+20 -8.920497e+20 5.723069e+20 5.723069e+20 3.282335e+20 -1.462265e+20 -7.512668e+18 -7.512668e+18 -2.817035e+21 -2.817035e+21 7.767795e+21 -3.808679e+21 7.977496e+22 1.414208e+22 -7.964105e+20 -2.945807e+21 1.223595e+22 -7.060408e+22 2.791409e+22 2.992924e+19 -8.985159e+19 -8.985159e+19 -8.985159e+19 3.743112e+22 3.743112e+22 1.754646e+21 1.754646e+21 -1.891841e+19 -1.609535e+22 3.288974e+21 -5.648809e+20 -5.648809e+20 1.268617e+18 1.268617e+18 -5.153778e+18 8.710326e+19 8.710326e+19 1.107799e+21 -1.093386e+20 -3.390057e+18 9.482457e+19 -4.000067e+18 1.508371e+19 -1.630270e+20 -6.584494e+20 3.818877e+20 3.818877e+20 3.818877e+20 -1.470140e+21 -1.370449e+22 -1.624333e+22 -7.209479e+20 1.309476e+22 -3.713514e+19 -3.713514e+19 -2.307055e+20 3.115430e+20 3.115430e+20 -4.924249e+19 -4.924249e+19 -1.956583e+20 -4.177092e+20 -3.831685e+18 4.014042e+20 -2.001497e+21 -9.619049e+17 -2.199292e+20 -2.199292e+20 3.236824e+19 3.236824e+19 3.236824e+19 1.486768e+20 -2.320231e+21 -2.124230e+21 7.117493e+20 7.673640e+18 1.909979e+19 -6.741503e+20 -3.824354e+19 -3.824354e+19 2.090525e+20 2.090525e+20 -1.042148e+17 -1.042148e+17 -1.029770e+20 -1.896129e+20 2.290564e+21 2.290564e+21 -8.751445e+20 2.313291e+15 3.275506e+19 -2.775598e+20 1.137828e+20 1.137828e+20 1.748814e+19 9.247615e+18 1.748147e+19 1.089967e+21 1.089967e+21 1.438347e+17 1.438347e+17 1.589864e+15 -2.861954e+17 -2.861954e+17 -4.972883e+18 -1.451808e+20 1.509556e+18 -1.981467e+19 -2.037785e+20 6.236842e+20 6.162196e+18 4.028706e+17 -6.609080e+18 -6.609080e+18 5.346658e+19 3.426023e+17 5.322046e+18 -1.097244e+16 -1.097244e+16 -1.097244e+16 -9.823658e+14 7.224456e+18 7.224456e+18 -1.917263e+22 -1.917263e+22 -9.233594e+21 -9.233594e+21 7.978363e+18 4.103653e+17 9.920548e+17 2.540536e+18 2.540536e+18 2.540536e+18 -1.329190e+18 1.880612e+17 1.880612e+17 1.060845e+17 1.060845e+17 -3.937735e+17 -3.937735e+17 -3.165936e+17 3.868364e+17 3.868364e+17 3.868364e+17 1.928643e+18 -2.095253e+17 -1.694599e+17 -1.694599e+17 -2.041580e+17 -6.735138e+14 -3.506884e+13 -6.756198e+16 -1.101876e+16 -1.101876e+16 4.954228e+17 1.251213e+19 1.055484e+14 -5.179413e+14 -9.684913e+15 3.707173e+16 3.707173e+16 -1.931924e+17 -5.239897e+17 3.608392e+19 9.672530e+15 9.672530e+15 -4.301327e+16 1.179198e+19 1.179198e+19 -1.945889e+17 2.759816e+16 -1.707760e+16 -1.707760e+16 -1.707760e+16 -1.120749e+17 8.000417e+15 1.024802e+16 2.000999e+18 3.932146e+14 1.024802e+16 -7.545792e+16 -2.718609e+15 -2.718609e+15 -3.931622e+14 -2.792935e+14 3.877403e+14 2.981400e+16 2.679957e+14 2.679957e+14 2.679957e+14 1.290158e+13 1.555732e+13 1.555732e+13 1.555732e+13 -2.846652e+13 -2.846652e+13 -7.470444e+12 -6.228927e+13 9.699950e+13 2.417186e+12 3.958533e+12 -1.187646e+13 1.199732e+12 -3.798807e+11 -7.308278e+11 -7.308278e+11 1.312358e+13 1.312358e+13 -1.351882e+11 -5.679630e+12 -5.679630e+12 -5.679630e+12 1.177853e+11 1.177853e+11 1.428622e+12 1.428622e+12 1.428622e+12 1.674889e+20 -2.802938e+19 -2.802938e+19 -2.802938e+19 5.440067e+13 5.440067e+13 8.392282e+19 8.392282e+19 8.392282e+19 4.029458e+20 4.029458e+20 6.932140e+11 9.115175e+10 1.300747e+20 1.300747e+20 6.487290e+18 -2.490164e+13 8.767944e+19 8.265423e+19 -4.033591e+19 -3.908591e+13 1.969279e+14 -1.730772e+11 3.288053e+12 3.288053e+12 3.051573e+12 -1.898432e+22 1.664544e+17 1.664544e+17 1.664544e+17 -4.151228e+16 4.793985e+18 4.793985e+18 4.793985e+18 -3.775243e+18 -2.236825e+19 -2.236825e+19 2.180645e+23 -6.452315e+17 -6.452315e+17 -6.452315e+17 -1.915203e+17 -3.902393e+13 -2.070957e+23 -2.070957e+23 -2.070957e+23 4.276257e+17 1.463333e+22 1.463333e+22 -2.980214e+20 -2.980214e+20 -2.980214e+20 4.875717e+17 4.875717e+17 4.875717e+17 -4.538302e+18 -2.453136e+19 -2.453136e+19 -1.732275e+22 -7.128993e+21 1.123931e+17 -8.866864e+18 -1.016690e+18 7.530869e+19 2.658094e+15 -1.042799e+16 4.459617e+19 5.077804e+15 1.304762e+15 -3.804431e+15 -3.804431e+15 -8.656982e+13 -8.656982e+13 -8.656982e+13 -7.313634e+10 1.082020e+23 -1.020625e+19 -1.020625e+19 -1.880293e+18 -7.805132e+17 -1.442644e+16 -1.442644e+16 -6.921116e+21 -6.921116e+21 2.663686e+20 2.663686e+20 1.874010e+18 -1.776422e+18 6.171624e+16 1.945121e+16 4.299950e+13 4.299950e+13 8.105419e+12 -1.639059e+13 5.502776e+23 5.502776e+23 -2.626318e+16 -1.215826e+14 -1.215826e+14 5.856204e+14 9.690523e+14 6.284128e+13 -5.882913e+12 -5.882913e+12 -5.882913e+12 -1.115056e+13 -1.115056e+13 -9.559812e+11 -5.156666e+11 -5.156666e+11 -5.156666e+11 -7.020236e+13 -7.020236e+13 -1.412598e+15 1.872012e+12 1.872012e+12 -2.521716e+11 -2.353206e+11 -2.353206e+11 7.788695e+12 6.874367e+11 1.447248e+12 7.796235e+10 7.796235e+10 7.796235e+10 -4.455011e+11 -1.134550e+12 6.865057e+11 -2.884536e+11 9.225131e+20 3.166079e+11 5.733221e+11 -7.588980e+10 5.667360e+10 -1.482593e+20 -3.047715e+21 -3.047715e+21 3.270017e+22 3.270017e+22 5.390971e+21 5.390971e+21 5.390971e+21 1.279724e+23 1.544956e+23 1.544956e+23 1.544956e+23 2.876872e+23 1.481260e+10 -3.449400e+11 -3.449400e+11 -3.449400e+11 1.084711e+12 2.219913e+13 2.726346e+13 -2.427048e+16 2.886119e+12 1.820270e+13 -1.825005e+13 -2.142751e+12 7.966720e+12 7.210358e+13 -1.475992e+13 1.370597e+11 -2.044378e+12 1.125083e+12 1.125083e+12 1.884485e+11 1.884485e+11 1.082059e+12 1.522414e+12 5.141743e+10 -1.189113e+10 -1.027259e+21 2.530433e+20 1.547462e+23 7.303150e+23 4.719642e+25 6.460493e+26 8.054604e+26 7.187468e+26 8.825210e+26 4.992164e+26 3.968089e+26 3.207598e+26 4.764134e+26 6.605452e+26 2.539215e+26 4.928673e+11 4.928673e+11 -1.257292e+09 -1.257292e+09 1.144202e+09 1.705375e+09 -1.082836e+11 -1.082836e+11 -1.082836e+11 -9.080920e+10 1.794887e+11 1.794887e+11 2.092112e+10 2.092112e+10 2.092112e+10 8.437532e+13 8.437532e+13 8.437532e+13 -8.892887e+13 -8.892887e+13 1.698075e+12 1.698075e+12 1.698075e+12 1.360174e+10 4.928673e+11 4.586923e+11 4.586923e+11 -1.142903e+11 2.070889e+13 2.070889e+13 5.041608e+24 5.041608e+24 5.041608e+24 -7.662622e+25 -7.662622e+25 2.224545e+12 6.795769e+11 6.795769e+11 -3.702108e+25 -3.702108e+25 -1.616610e+25 -2.092465e+22 -2.092465e+22 -2.092465e+22 1.846565e+21 1.846565e+21 1.846565e+21 -2.793439e+20 -2.793439e+20 -2.121933e+12 -2.040265e+23 -2.040265e+23 -2.040265e+23 -4.381837e+23 9.923702e+25 9.923702e+25 9.923702e+25 8.472650e+25 2.969782e+25 8.363655e+24 8.363655e+24 8.363655e+24 6.347689e+25 -2.282859e+24 -2.282859e+24 -2.282859e+24 1.862070e+25 1.676827e+20 -2.595190e+21 1.676827e+20 1.676827e+20 -5.265246e+14 -5.265246e+14 1.856030e+11 5.168446e+21 5.168446e+21 1.742639e+26 6.605452e+26 1.774617e+25 1.774617e+25 1.862070e+25 6.116537e+24 2.756466e+24 1.303972e+25 3.322585e+24 6.424824e+23 6.424824e+23 1.799057e+25 -2.710235e+23 8.279176e+23 1.799057e+25 -3.262176e+22 1.836836e+23 1.836836e+23 -5.937666e+23 -5.937666e+23 9.090645e+23 -3.723315e+23 3.019162e+24 3.660659e+23 3.660659e+23 1.521001e+23 -3.443885e+23 -9.393071e+22 4.888639e+19 4.888639e+19 -2.595190e+21 3.498716e+20 3.498716e+20 -2.582046e+19 -2.582046e+19 -2.575509e+19 3.875799e+20 -2.784202e+18 5.248157e+13 1.856030e+11 1.856030e+11 -2.451145e+10 -2.451145e+10 -2.451145e+10 7.815606e+10 4.300445e+11 2.695364e+12 2.695364e+12 2.695364e+12 6.374424e+12 -3.352980e+13 -3.352980e+13 -3.352980e+13 -1.689678e+13 -9.084669e+12 5.069611e+14 5.069611e+14 5.069611e+14 -6.928100e+15 -3.358132e+17 -3.358132e+17 -3.358132e+17 -2.781273e+17 -1.662195e+17 -1.277835e+15 -1.277835e+15 3.231223e+15 4.674046e+19 4.674046e+19 4.674046e+19 2.060425e+19 2.060425e+19 1.050638e+19 1.050638e+19 1.050638e+19 -2.436868e+13 -2.436868e+13 -3.618176e+18 -3.618176e+18 -3.618176e+18 -3.370965e+18 -3.370965e+18 6.332328e+20 6.332328e+20 6.332328e+20 -2.849904e+19 -2.849904e+19 -2.849904e+19 -1.406286e+18 -1.406286e+18 -1.406286e+18 9.089038e+13 2.981616e+19 1.021074e+20 2.056372e+18 9.239390e+18 6.185998e+20 2.260791e+20 2.260791e+20 3.822980e+17 3.822980e+17 -3.085509e+18 1.949969e+18 3.349691e+19 3.349691e+19 3.349691e+19 2.315824e+21 5.168446e+21 -4.421696e+17 -3.463984e+16 -3.463984e+16 -3.463984e+16 1.764531e+20 1.165033e+18 -1.343210e+17 1.181032e+16 1.797520e+15 -3.785661e+17 -1.309688e+14 4.759057e+14 -8.337686e+14 -8.337686e+14 3.974605e+10 3.197866e+23 3.197866e+23 1.728807e+20 5.898831e+16 5.898831e+16 6.049492e+19 -8.579163e+22 -1.454292e+15 -1.454292e+15 -1.465284e+14 -1.465284e+14 -1.465284e+14 7.910189e+18 3.845229e+19 -1.591495e+14 3.011431e+15 -1.365393e+14 -5.542852e+13 1.261267e+13 1.261267e+13 1.261267e+13 2.234546e+13 2.234546e+13 -1.983189e+13 2.786672e+13 2.786672e+13 -7.803792e+14 1.904816e+13 -2.121933e+12 -4.208901e+11 -4.208901e+11 4.200213e+11 -2.598064e+09 -6.418319e+19 2.523810e+22 2.523810e+22 -2.780128e+22 -2.780128e+22 -1.196551e+21 4.796123e+10 -1.086245e+17 7.356206e+19 -8.425278e+20 -4.406212e+20 1.238800e+21 1.238800e+21 -1.052771e+21 -1.052771e+21 -1.052771e+21 -1.949532e+22 5.469184e+22 5.613188e+22 5.315889e+21 5.315889e+21 1.047651e+22 2.478745e+24 -1.107540e+14 -1.748831e+15 5.109379e+19 1.720971e+22 6.115572e+15 -8.949048e+15 -4.677294e+13 1.808461e+14 -1.874169e+14 7.278121e+13 3.230760e+13 2.113104e+15 -4.857909e+12 -4.857909e+12 4.358873e+12 2.673444e+12 7.186640e+11 9.988895e+10 9.988895e+10 -7.336106e+10 7.761517e+12 -4.079006e+11 -5.244678e+19 -1.481355e+21 -1.229172e+21 3.228219e+23 -4.047452e+21 2.188999e+22 -3.810962e+20 -7.783472e+22 1.357687e+22 -7.952128e+10 -1.257292e+09 4.719642e+25 1.581197e+27 1.589887e+27 1.307559e+27 1.462537e+27 7.476844e+26 6.644674e+26 2.899555e+26 3.665151e+26 4.892730e+26 6.344712e+26 7.746328e+26 2.953091e+26 5.446973e+26 1.070634e+27 1.671773e+27 5.038382e+26 3.079342e+26 5.149718e+26 2.740534e+26 3.072245e+26 2.948142e+25 6.602749e+26 1.406370e+26 2.590828e+27 2.974224e+27 2.603844e+26 5.558457e+26 4.002053e+26 1.630868e+26 4.068879e+26 8.137440e+26 5.800138e+26 7.955555e+26 3.255933e+26 6.771906e+25 5.454959e+26 3.878053e+26 -1.840551e+25 4.991755e+25 1.635244e+26 1.582132e+26 4.247156e+25 7.078422e+25 3.518027e+26 2.050822e+26 9.744063e+25 2.047805e+25 7.675504e+25 1.418503e+26 2.305132e+26 2.602872e+26 1.577061e+26 2.724957e+24 7.301933e+25 2.581456e+25 3.760927e+25 1.378924e+26 1.497806e+26 1.909550e+26 2.385874e+26 6.041591e+25 5.111100e+24 1.904624e+25 8.766623e+24 1.142909e+25 1.061741e+25 2.629666e+25 2.328515e+25 4.222172e+24 4.259799e+24 2.804080e+25 2.660679e+25 3.456568e+25 4.546885e+25 2.188155e+25 1.496723e+25 7.135655e+24 3.671900e+24 1.255717e+24 5.855894e+24 3.084405e+24 3.329146e+23 1.731178e+24 1.376891e+24 9.498084e+23 5.223018e+23 4.132710e+23 7.238907e+23 5.404246e+23 5.815286e+23 1.884228e+22 1.661615e+23 3.587679e+21 4.888815e+22 7.453510e+22 5.384856e+21 1.400151e+19 1.108011e+19 2.386466e+21 -1.159250e+23 4.289297e+20 1.302785e+21 1.450600e+22 -4.259829e+21 1.507584e+23 1.855608e+23 6.164644e+23 6.628306e+23 4.038413e+23 -1.695916e+22 4.822091e+23 6.413948e+23 1.291633e+24 1.057156e+24 1.908278e+23 1.340786e+24 2.118729e+24 3.119594e+24 3.129775e+24 3.684658e+24 1.436740e+24 2.701163e+24 2.701163e+24 3.880530e+11 3.880530e+11 5.902782e+11 -1.149542e+09 1.634956e+09 5.667360e+10 -7.313634e+10 -7.313634e+10 6.155686e+09 -7.336106e+10 7.186640e+11 7.186640e+11 5.631348e+11 5.631348e+11 3.230760e+13 -9.084669e+12 -5.617798e+12 -2.813761e+13 1.808461e+14 -1.107540e+14 -1.107540e+14 -1.748831e+15 -1.748831e+15 6.115572e+15 -8.455728e+15 5.898831e+16 -1.086245e+17 -3.614692e+16 2.252245e+17 4.424371e+18 9.239390e+18 -1.148032e+18 -2.298654e+17 2.060425e+19 2.996077e+20 -3.179924e+19 -8.425278e+20 -8.425278e+20 -4.699372e+20 1.066290e+21 1.066290e+21 7.334822e+21 4.513240e+22 4.513240e+22 3.197866e+23 5.613188e+22 5.613188e+22 5.315889e+21 1.720971e+22 -2.279514e+23 -2.279514e+23 1.098985e+25 2.756466e+24 6.116537e+24 3.907342e+24 7.676932e+24 4.023629e+11 -2.732557e+14 -2.732557e+14 -2.732557e+14 5.564200e+15 -1.502607e+16 -1.502607e+16 -1.502607e+16 3.161384e+13 3.161384e+13 -6.634364e+15 -6.634364e+15 -6.634364e+15 -1.132896e+16 -9.918946e+15 5.440067e+13 7.361510e+13 7.361510e+13 -1.260899e+14 -2.813431e+14 -2.813431e+14 -2.813431e+14 -1.520463e+13 -2.559793e+14 1.324376e+23 1.324376e+23 1.324376e+23 2.000735e+23 -4.979521e+11 -4.979521e+11 -4.979521e+11 3.370837e+11 2.098560e+12 2.098560e+12 -3.125881e+14 -3.125881e+14 2.681322e+13 -4.182540e+13 4.023629e+11 4.023629e+11 1.241461e+11 1.241461e+11 1.241461e+11 1.756414e+12 1.467909e+11 1.467909e+11 2.016496e+12 3.419740e+15 3.419740e+15 3.419740e+15 3.267035e+16 5.075171e+16 9.159370e+16 6.291950e+16 7.782142e+15 7.782142e+15 7.782142e+15 -1.973063e+15 -4.657138e+15 -3.506884e+13 6.444284e+17 -3.506884e+13 1.320065e+19 1.320065e+19 1.320065e+19 -6.987043e+20 -6.987043e+20 -6.987043e+20 -4.332965e+20 -7.742428e+19 -2.531842e+20 -7.742428e+19 -7.742428e+19 4.257906e+20 4.257906e+20 4.257906e+20 3.122736e+21 1.140911e+23 1.140911e+23 1.140911e+23 1.780368e+23 -3.249025e+23 -3.249025e+23 -3.249025e+23 -2.801382e+22 -2.801382e+22 2.270982e+21 2.270982e+21 2.270982e+21 7.863908e+20 6.437572e+19 6.437572e+19 6.437572e+19 -1.387837e+21 -1.387837e+21 1.311505e+24 1.311505e+24 1.311505e+24 3.905280e+23 -7.006348e+20 -7.006348e+20 -7.006348e+20 -8.264918e+20 -8.264918e+20 9.915378e+22 -7.172972e+21 8.047219e+23 8.047219e+23 8.047219e+23 1.505232e+24 9.349522e+25 9.349522e+25 9.349522e+25 1.734506e+25 1.734506e+25 -9.475844e+23 -9.475844e+23 -9.475844e+23 -2.679331e+23 5.318564e+24 5.318564e+24 5.318564e+24 2.678066e+24 1.291633e+24 1.231544e+24 1.231544e+24 1.231544e+24 -1.971889e+23 -1.971889e+23 -1.971889e+23 2.012143e+25 -4.041359e+22 -4.041359e+22 -4.041359e+22 4.853032e+23 1.400151e+19 -1.717398e+19 -1.717398e+19 -1.717398e+19 4.863635e+20 1.952275e+21 1.952275e+21 1.952275e+21 -7.365203e+21 -7.365203e+21 -7.172972e+21 -7.172972e+21 9.915378e+22 -3.705136e+23 -3.705136e+23 -3.705136e+23 1.764541e+24 1.764541e+24 -4.533462e+20 -1.582252e+20 -1.582252e+20 -3.074477e+21 -3.074477e+21 -3.074477e+21 -2.877420e+22 -2.877420e+22 -1.552464e+21 -1.552464e+21 -1.552464e+21 1.357508e+22 -5.512363e+18 7.533082e+19 -5.512363e+18 -5.512363e+18 5.322046e+18 -9.174467e+15 -9.174467e+15 -9.174467e+15 7.779270e+15 1.381684e+17 1.619149e+15 1.619149e+15 5.905016e+16 5.905016e+16 2.768534e+17 2.768534e+17 -7.671389e+16 -7.671389e+16 -7.671389e+16 1.780796e+18 1.780796e+18 3.172452e+12 3.172452e+12 3.172452e+12 -6.593372e+12 3.599512e+13 8.607324e+15 1.310353e+15 -1.760019e+19 -1.760019e+19 -1.760019e+19 -1.313848e+18 -2.523754e+20 -2.523754e+