<?xml version="1.0"?>
 <VTKFile type="UnstructuredGrid" version="1.0" byte_order="LittleEndian" header_type="UInt64">
  <UnstructuredGrid>
    <FieldData>
     <DataArray type="Float64" Name="TimeValue" NumberOfTuples="1" format="ascii">
4e-08
     </DataArray>
    </FieldData>
   <Piece NumberOfPoints="3468" NumberOfCells="3392">
    <PointData>
     <DataArray type="Float64" Name="pointP" format="ascii">
-1.260859e+14 3.367925e+15 2.453756e+16 2.042019e+17 1.975087e+17 2.804165e+16 2.804165e+16 -1.230908e+15 2.360187e+16 -1.553832e+17 -1.553832e+17 -2.892184e+15 7.896798e+15 -4.829762e+14 -4.829762e+14 9.077649e+14 6.841863e+15 1.295474e+15 -2.357795e+15 1.316970e+14 2.466854e+14 1.046963e+14 1.026890e+14 1.026890e+14 1.418651e+14 7.813863e+14 3.315676e+14 1.796313e+14 2.836175e+14 7.113121e+13 2.239089e+14 6.796762e+13 5.295287e+11 2.273189e+14 -1.618813e+13 7.161302e+13 7.359622e+11 1.411334e+12 -1.273947e+11 1.440438e+13 4.176605e+12 9.106630e+11 7.912501e+13 4.850493e+14 6.380589e+16 -5.100650e+16 -1.865371e+19 6.280532e+18 3.249702e+18 -4.174779e+13 1.802901e+13 1.590018e+10 6.348039e+08 6.348039e+08 3.098801e+11 3.098801e+11 -8.697285e+14 -1.361984e+12 4.561102e+12 2.126383e+12 2.385319e+09 -2.406030e+07 -2.406030e+07 1.337734e+08 2.879610e+08 4.993688e+08 3.211942e+10 8.957911e+11 8.957911e+11 1.518308e+11 5.692226e+10 1.782080e+09 1.182018e+08 -3.226202e+07 -3.226202e+07 2.404714e+07 1.762686e+06 4.381655e+07 8.333032e+07 2.377848e+07 2.330829e+06 2.330829e+06 7.841848e+05 6.269298e+05 5.778458e+06 5.778458e+06 9.278370e+06 4.916831e+06 4.916831e+06 9.062248e+06 2.077934e+07 2.077934e+07 1.223098e+07 1.020883e+07 2.755675e+07 3.113169e+07 2.457009e+07 2.061883e+07 2.061883e+07 2.522450e+07 1.252347e+07 1.252347e+07 9.539845e+06 9.442147e+06 1.954148e+07 1.354097e+07 1.354097e+07 1.459912e+07 7.317039e+06 7.317039e+06 7.066621e+06 6.684504e+06 9.380324e+06 4.460773e+06 4.460773e+06 5.437635e+06 7.013738e+06 6.996860e+06 3.731187e+06 1.546197e+06 8.219388e+05 1.013250e+05 1.013250e+05 1.013250e+05 1.013250e+05 1.013250e+05 1.261611e+07 3.588152e+07 3.689436e+07 3.127640e+08 4.490878e+09 4.490878e+09 -1.500468e+10 -1.500468e+10 -3.931820e+07 -3.931820e+07 -3.931820e+07 -1.362678e+08 -1.362678e+08 3.003170e+06 3.003170e+06 7.328069e+11 7.328069e+11 7.328069e+11 3.401233e+11 3.401233e+11 -2.602211e+10 -2.602211e+10 -2.602211e+10 -7.430315e+10 1.521429e+08 1.521429e+08 3.705222e+09 7.802851e+06 7.802851e+06 7.802851e+06 8.952153e+06 8.952153e+06 1.052651e+07 1.128737e+07 1.128737e+07 1.165499e+07 3.692610e+06 9.201641e+06 1.094992e+07 3.844560e+06 3.844560e+06 2.670528e+06 2.670528e+06 8.779993e+05 -1.629277e+06 -7.063858e+12 -7.063858e+12 -7.063858e+12 -7.190098e+11 -7.190098e+11 -3.608539e+12 -9.179299e+13 -9.179299e+13 -9.179299e+13 -1.023720e+14 -7.556806e+12 6.801967e+10 -1.488419e+12 -1.488419e+12 -1.775336e+12 5.687558e+13 5.687558e+13 1.341407e+13 1.061102e+12 1.061102e+12 1.061102e+12 -4.879342e+15 -4.879342e+15 -4.879342e+15 -1.972545e+15 -1.972545e+15 -1.972545e+15 -3.949928e+09 -3.949928e+09 -3.949928e+09 1.285388e+13 1.285388e+13 1.285388e+13 -2.616100e+11 -2.616100e+11 -2.616100e+11 -9.306794e+10 -1.047409e+16 -1.047409e+16 -1.011007e+12 -1.011007e+12 -1.011007e+12 2.954930e+16 9.786030e+15 -3.133065e+13 -3.133065e+13 3.175066e+08 3.175066e+08 3.175066e+08 -1.003306e+09 -1.003306e+09 -1.681110e+12 -2.118960e+12 -2.118960e+12 7.287398e+11 7.287398e+11 7.287398e+11 1.264795e+08 1.264795e+08 4.155870e+14 4.155870e+14 4.155870e+14 -2.365643e+14 -4.701848e+15 -1.060926e+15 2.271644e+12 2.271644e+12 2.463770e+14 2.463770e+14 2.463770e+14 -3.906058e+15 3.513834e+15 3.513834e+15 3.738796e+13 3.738796e+13 3.738796e+13 6.113455e+08 6.113455e+08 6.113455e+08 1.404140e+15 1.404140e+15 1.404140e+15 2.594025e+13 6.424171e+12 -5.104422e+15 -5.104422e+15 -5.104422e+15 -8.743332e+14 -1.270109e+13 -1.270109e+13 -6.992787e+15 -2.710646e+12 -2.710646e+12 -2.710646e+12 2.452455e+16 2.452455e+16 1.873454e+12 1.873454e+12 -3.947931e+13 -3.947931e+13 -3.947931e+13 3.618351e+15 3.618351e+15 3.618351e+15 -9.754809e+14 -9.754809e+14 -9.754809e+14 1.614073e+16 1.614073e+16 3.498511e+13 3.498511e+13 1.805603e+15 1.805603e+15 1.805603e+15 3.670098e+12 8.657812e+11 8.657812e+11 8.657812e+11 1.800606e+15 -3.045601e+13 -3.045601e+13 -1.466444e+14 -1.466444e+14 -1.466444e+14 -4.046082e+13 -4.046082e+13 -4.046082e+13 -4.106052e+15 2.172841e+15 2.172841e+15 2.172841e+15 -1.117422e+15 -1.117422e+15 -1.117422e+15 5.002656e+16 1.214804e+16 6.057547e+13 6.057547e+13 6.057547e+13 -1.341250e+13 -1.341250e+13 4.301226e+11 4.301226e+11 4.301226e+11 1.064617e+16 1.064617e+16 1.064617e+16 6.358335e+13 -4.833009e+15 -1.003442e+15 -1.003442e+15 -3.971182e+11 -3.971182e+11 -3.971182e+11 -1.098100e+16 -1.098100e+16 5.003853e+14 5.003853e+14 -1.476071e+16 5.623269e+16 5.623269e+16 -1.307823e+14 -1.307823e+14 -1.307823e+14 1.108360e+14 -4.923600e+14 2.360541e+15 2.360541e+15 7.139565e+12 7.139565e+12 2.714645e+13 2.714645e+13 2.714645e+13 -5.811104e+13 -5.811104e+13 2.831698e+09 2.831698e+09 2.831698e+09 -4.680328e+10 -4.680328e+10 -4.680328e+10 2.679009e+13 2.708715e+15 2.938451e+12 2.938451e+12 2.938451e+12 -2.137596e+14 -2.137596e+14 -2.137596e+14 -1.635163e+15 -7.496180e+14 2.708715e+15 4.041163e+14 2.080854e+11 2.080854e+11 2.080854e+11 -9.463233e+13 -9.463233e+13 2.822827e+10 2.822827e+10 2.822827e+10 -1.185112e+14 -1.185112e+14 -1.185112e+14 9.203096e+12 1.098883e+09 1.098883e+09 1.098883e+09 6.767308e+13 9.035557e+14 9.035557e+14 -2.312303e+13 -1.470231e+11 -1.470231e+11 2.981247e+13 5.325862e+13 5.325862e+13 1.971722e+14 1.971722e+14 -9.910017e+14 -4.715823e+13 9.830901e+11 9.830901e+11 9.830901e+11 -2.321665e+13 -1.789631e+09 -1.789631e+09 -2.877702e+15 1.321988e+14 1.321988e+14 5.287293e+13 1.713192e+07 1.713192e+07 1.713192e+07 -1.397621e+08 -1.397621e+08 -1.140852e+13 -1.140852e+13 1.959135e+10 1.959135e+10 -6.468044e+13 3.422496e+11 3.422496e+11 3.422496e+11 -5.190066e+12 -5.190066e+12 -5.190066e+12 -1.060926e+15 8.607096e+10 8.607096e+10 -4.729807e+11 -1.292411e+11 -4.461063e+15 -1.004919e+14 -2.393325e+13 -2.393325e+13 -6.186642e+07 -6.186642e+07 -6.186642e+07 -1.354942e+12 6.129960e+06 6.129960e+06 6.129960e+06 2.402565e+11 2.402565e+11 2.118723e+12 -9.488796e+13 -2.427448e+07 -2.427448e+07 -2.427448e+07 2.737817e+07 2.737817e+07 2.737817e+07 -2.162768e+08 -2.162768e+08 3.377746e+08 3.377746e+08 4.696851e+09 4.696851e+09 2.067754e+10 1.377884e+14 1.377884e+14 -4.621428e+12 -4.621428e+12 1.843509e+11 1.843509e+11 -5.322212e+13 -1.802712e+06 6.902371e+05 6.902371e+05 6.902371e+05 2.178883e+11 6.216412e+07 6.216412e+07 -8.997585e+10 -8.997585e+10 -3.788704e+13 -1.156736e+14 7.562037e+10 1.694827e+10 1.694827e+10 2.898850e+09 2.898850e+09 6.251910e+11 1.858526e+07 1.858526e+07 1.858526e+07 1.984963e+07 1.984963e+07 1.984963e+07 -2.976052e+10 -2.976052e+10 -2.976052e+10 -3.207722e+11 -3.207722e+11 9.082106e+06 9.082106e+06 9.082106e+06 -8.818917e+06 -8.818917e+06 -8.818917e+06 1.361667e+08 1.548871e+07 1.548871e+07 1.548871e+07 -1.116684e+08 -1.116684e+08 7.754991e+10 1.007109e+07 1.007109e+07 2.360659e+07 2.360659e+07 2.360659e+07 -3.379968e+10 -3.379968e+10 2.024600e+08 2.024600e+08 1.652040e+09 1.652040e+09 1.652040e+09 1.676139e+07 1.676139e+07 1.676139e+07 1.867183e+10 1.306844e+07 1.306844e+07 1.306844e+07 5.103479e+06 5.103479e+06 5.103479e+06 -1.200277e+07 -1.200277e+07 -1.200277e+07 -6.182851e+06 -3.463050e+08 -3.463050e+08 -2.668807e+08 -2.201570e+08 -2.201570e+08 7.497406e+06 3.869466e+07 3.869466e+07 3.869466e+07 5.137409e+06 5.137409e+06 5.137409e+06 2.043528e+07 2.043528e+07 2.043528e+07 1.024197e+07 1.024197e+07 1.024197e+07 -1.707656e+07 -1.707656e+07 -3.789419e+07 -3.789419e+07 -6.013037e+07 -6.013037e+07 1.506585e+07 1.506585e+07 1.506585e+07 -5.165997e+07 -5.165997e+07 -8.696720e+07 -8.696720e+07 1.626620e+07 1.589687e+07 1.589687e+07 -2.180912e+07 -2.180912e+07 -9.129824e+06 1.919077e+07 1.919077e+07 1.919077e+07 1.707447e+07 1.707447e+07 1.345505e+07 1.345505e+07 -1.852687e+07 1.737714e+11 1.737714e+11 1.737714e+11 6.044711e+11 6.044711e+11 6.044711e+11 1.620757e+07 1.620757e+07 1.940768e+07 1.940768e+07 1.940768e+07 1.820282e+07 1.658128e+07 1.658128e+07 5.293656e+10 1.027744e+11 -4.634808e+15 -5.249607e+12 -6.159204e+15 -1.421657e+13 6.749440e+11 7.264138e+06 7.264138e+06 7.264138e+06 1.077909e+07 1.077909e+07 -1.846503e+07 -1.199357e+06 4.782496e+06 -4.629792e+12 1.707738e+14 -5.671815e+07 1.344477e+08 1.344477e+08 1.796389e+07 1.796389e+07 1.796389e+07 1.625750e+07 1.006725e+07 3.250455e+07 3.250455e+07 1.877794e+07 1.877794e+07 1.877794e+07 7.215938e+05 -6.731198e+09 -7.696423e+09 1.329143e+16 1.439909e+16 1.439909e+16 -9.354905e+14 9.672813e+13 9.672813e+13 1.173464e+12 -1.447790e+06 1.086719e+07 1.086719e+07 1.086719e+07 7.891393e+06 7.891393e+06 -2.385267e+15 -2.385267e+15 -7.148683e+15 5.544480e+16 -9.817072e+15 1.899300e+16 1.610416e+16 1.610416e+16 1.610416e+16 1.601673e+14 5.074824e+16 6.298793e+16 1.007254e+11 -1.571360e+13 1.540204e+15 1.540204e+15 1.540204e+15 1.835964e+14 1.835964e+14 2.947982e+15 2.460709e+17 3.031020e+16 4.829092e+16 -4.877925e+12 1.927806e+16 5.586994e+16 5.586994e+16 4.966162e+16 1.384997e+15 1.384997e+15 -2.500810e+14 1.607593e+14 5.182160e+14 2.519175e+13 -3.504594e+14 -1.085168e+13 1.456823e+16 1.456823e+16 1.456823e+16 -1.259192e+16 -1.259192e+16 -3.134711e+13 -5.696669e+13 1.488027e+15 2.654325e+14 6.771730e+15 -5.219053e+16 -1.594990e+16 -2.398256e+13 6.811688e+14 -5.899084e+13 6.268102e+13 4.613673e+14 1.992163e+14 -1.103632e+14 5.860085e+13 -2.627493e+12 1.648745e+15 1.944865e+15 -3.324008e+09 -3.324008e+09 6.934731e+15 -7.874131e+12 -7.874131e+12 1.222494e+14 1.222494e+14 -1.986561e+12 -3.718810e+11 5.589535e+11 5.589535e+11 5.589535e+11 -3.967678e+14 -1.003094e+14 -1.003094e+14 1.869442e+10 1.275333e+10 1.761987e+14 1.054164e+18 5.010262e+12 5.010262e+12 -2.565101e+12 4.769439e+13 2.503305e+12 2.503305e+12 6.344780e+12 -1.093258e+11 5.250786e+11 2.684998e+12 5.087665e+11 -5.080720e+08 -5.080720e+08 3.613730e+13 -1.961938e+13 2.725540e+13 2.725540e+13 2.725540e+13 6.815655e+10 1.515289e+11 7.015178e+14 -3.573533e+13 4.259200e+10 4.259200e+10 4.259200e+10 -1.741512e+12 -1.741512e+12 3.259814e+11 8.498500e+11 -2.682689e+08 1.073391e+11 2.549815e+09 5.314653e+09 5.314653e+09 7.917657e+11 1.466321e+11 -9.081839e+12 2.294093e+11 1.235612e+11 -1.301362e+13 -6.194977e+04 -6.194977e+04 -6.194977e+04 -1.089329e+09 -3.105877e+11 5.759596e+11 -7.145816e+09 9.301094e+13 -7.673007e+10 -7.673007e+10 2.878383e+10 1.208186e+13 1.825959e+07 1.825959e+07 2.013882e+09 1.839632e+07 1.839632e+07 -6.967471e+06 1.437437e+10 1.437437e+10 4.631710e+07 4.631710e+07 -5.197711e+10 2.930018e+10 6.350094e+07 4.347706e+07 4.347706e+07 -2.161098e+11 1.785001e+10 1.785001e+10 1.352217e+11 1.352217e+11 1.352217e+11 8.510673e+09 8.510673e+09 5.063507e+09 2.643087e+07 2.643087e+07 1.523077e+07 1.207353e+07 5.911704e+07 -3.736527e+06 4.422080e+09 9.711191e+07 1.229033e+08 4.198034e+08 1.260842e+10 2.766225e+07 2.428389e+07 2.428389e+07 2.428389e+07 1.647520e+07 1.016155e+06 1.887270e+07 1.887270e+07 1.887270e+07 -3.703743e+05 3.615817e+07 3.615817e+07 3.615817e+07 2.639163e+07 -8.718800e+08 1.868373e+07 1.868373e+07 4.606650e+06 4.238122e+08 -6.814767e+08 1.156554e+09 5.549682e+09 1.608787e+07 1.608787e+07 -1.008957e+07 -7.849990e+06 1.817659e+07 6.946842e+08 1.622380e+07 1.622380e+07 1.622380e+07 1.506305e+07 1.938255e+07 1.938255e+07 1.938255e+07 2.143404e+07 2.143404e+07 1.762973e+07 -6.265974e+07 1.245690e+07 1.163698e+07 1.512383e+07 1.871350e+07 1.871350e+07 8.877684e+06 8.877684e+06 1.134961e+08 1.885249e+07 1.486879e+07 1.486879e+07 2.276064e+07 2.276064e+07 -1.946128e+09 1.483238e+07 -4.524808e+06 1.420770e+07 1.420770e+07 2.024305e+07 2.024305e+07 2.024305e+07 1.841435e+07 2.050678e+07 2.050678e+07 1.084417e+07 -2.339779e+06 2.629357e+07 1.595557e+07 1.960951e+07 1.960951e+07 1.786621e+07 1.642125e+07 3.114748e+07 2.067055e+07 1.658711e+07 1.658711e+07 1.767477e+07 1.673742e+07 2.260848e+06 2.260848e+06 1.111163e+07 1.111163e+07 1.705497e+07 1.705497e+07 4.658219e+06 8.795645e+06 6.818216e+06 3.043080e+06 -3.074747e+07 -3.074747e+07 2.167906e+07 7.837017e+06 7.837017e+06 6.644188e+06 6.644188e+06 9.058803e+06 9.058803e+06 1.897084e+07 -4.728128e+06 -4.569312e+06 1.565434e+07 2.018351e+07 7.552962e+06 1.396274e+07 1.477706e+07 1.013218e+07 1.013218e+07 2.331692e+08 2.008631e+07 2.008631e+07 2.008631e+07 1.697835e+07 7.070710e+06 1.370151e+07 1.908859e+07 -2.107960e+07 1.589484e+07 1.726791e+07 1.738767e+07 8.492069e+06 3.557803e+05 5.620860e+06 1.924912e+07 1.331853e+07 1.236601e+07 1.408346e+07 9.080190e+06 1.439539e+07 1.463385e+07 1.356629e+07 1.278816e+07 6.625589e+06 1.329111e+07 2.339082e+07 6.397763e+06 6.397763e+06 1.824527e+07 1.824527e+07 9.375379e+07 9.375379e+07 -5.256418e+06 7.998797e+06 2.437540e+07 1.013250e+05 1.013250e+05 1.013250e+05 1.013250e+05 -1.575549e+07 3.367848e+10 -5.317116e+09 -7.630816e+11 -1.051412e+13 1.205857e+14 4.515265e+13 -1.181798e+15 -1.181798e+15 -1.181798e+15 -1.271055e+15 -9.737145e+14 -4.760053e+15 -2.851444e+15 4.735554e+06 4.735554e+06 4.735554e+06 -1.082048e+07 5.815959e+06 5.815959e+06 5.815959e+06 -5.946061e+05 -2.631663e+12 -2.631663e+12 -2.631663e+12 1.222132e+13 1.222132e+13 -1.568228e+07 -1.568228e+07 -1.568228e+07 -9.116715e+06 -9.116715e+06 2.329984e+14 1.652664e+10 1.652664e+10 3.252657e+10 2.137842e+10 2.137842e+10 1.458077e+11 -3.086992e+16 6.738223e+06 6.738223e+06 6.738223e+06 3.253667e+06 3.253667e+06 3.253667e+06 2.439770e+06 4.460773e+06 1.045551e+07 1.045551e+07 1.045551e+07 -5.285996e+10 -1.485841e+10 -5.285996e+10 -5.285996e+10 8.204931e+06 7.127106e+06 9.213929e+10 5.026403e+11 9.213929e+10 9.213929e+10 -1.159845e+15 -5.226648e+06 -5.226648e+06 -5.226648e+06 -6.537333e+06 -1.095635e+11 -1.095635e+11 -1.575549e+07 3.036020e+13 8.726694e+06 8.726694e+06 4.704408e+06 -5.549715e+10 -5.549715e+10 1.444963e+11 2.496891e+13 2.496891e+13 2.496891e+13 7.113121e+13 -2.468977e+15 -2.468977e+15 -2.468977e+15 -1.208689e+14 -1.208689e+14 -2.007939e+07 -2.007939e+07 -2.007939e+07 -2.037311e+09 -2.037311e+09 -1.106345e+12 -1.106345e+12 -1.106345e+12 -2.303082e+12 -3.665180e+06 -3.665180e+06 -3.665180e+06 -1.919894e+07 1.057550e+13 1.057550e+13 1.057550e+13 8.363037e+12 -3.681373e+11 -1.387897e+12 1.907962e+14 1.907962e+14 1.907962e+14 -9.217440e+13 -2.526248e+13 6.280532e+18 6.280532e+18 -3.520864e+13 -3.520864e+13 -3.520864e+13 1.129038e+13 1.129038e+13 1.129038e+13 -6.539299e+12 -6.539299e+12 -6.539299e+12 -1.566612e+17 -1.566612e+17 -6.681399e+17 -6.681399e+17 3.402189e+05 3.402189e+05 3.402189e+05 6.207988e+05 -3.755715e+14 -3.755715e+14 -3.755715e+14 -5.045496e+11 -5.045496e+11 -5.045496e+11 -5.759017e+13 -5.759017e+13 -5.759017e+13 1.048098e+12 1.048098e+12 1.048098e+12 -7.136409e+13 -7.136409e+13 -7.136409e+13 -1.292976e+14 -1.292976e+14 1.520905e+16 1.520905e+16 2.690108e+16 2.690108e+16 2.690108e+16 -1.138171e+12 -1.138171e+12 -1.138171e+12 1.099837e+12 1.099837e+12 1.099837e+12 -1.338254e+14 -3.750867e+14 -1.995197e+07 -1.995197e+07 -1.995197e+07 2.817291e+12 2.817291e+12 2.817291e+12 1.042469e+12 1.042469e+12 8.584558e+15 8.584558e+15 -2.971004e+18 -3.381729e+15 -3.381729e+15 -3.381729e+15 -1.325618e+12 -1.325618e+12 -1.325618e+12 -2.800634e+13 -1.364293e+13 4.787438e+11 4.787438e+11 4.787438e+11 5.678205e+06 5.678205e+06 5.678205e+06 1.598261e+14 -1.704612e+13 -1.647829e+13 -1.647829e+13 -1.647829e+13 -4.051189e+15 -4.051189e+15 -4.051189e+15 -8.934943e+13 -8.934943e+13 -8.398393e+13 -8.398393e+13 -8.573420e+12 4.680768e+10 4.680768e+10 -8.064618e+12 -8.064618e+12 -8.064618e+12 -6.048287e+14 1.341557e+18 1.341557e+18 1.038026e+07 1.038026e+07 1.038026e+07 2.108956e+16 -4.305118e+13 -4.305118e+13 -4.305118e+13 4.187836e+15 4.187836e+15 3.610673e+16 4.176605e+12 4.176605e+12 -1.461823e+14 -1.461823e+14 -4.435773e+13 -4.435773e+13 -4.435773e+13 4.417012e+16 1.785808e+15 1.785808e+15 1.785808e+15 -1.790517e+14 -1.790517e+14 -1.790517e+14 9.723895e+15 9.723895e+15 5.347449e+14 5.347449e+14 5.347449e+14 -8.770193e+12 -8.021196e+13 -8.021196e+13 -8.021196e+13 2.607669e+14 2.607669e+14 2.607669e+14 -1.324416e+16 -1.324416e+16 -1.324416e+16 9.530605e+14 9.530605e+14 2.673561e+16 2.584634e+15 2.584634e+15 2.801169e+15 2.801169e+15 4.034248e+14 4.034248e+14 9.005043e+14 2.673561e+16 2.673561e+16 -2.065060e+12 -2.065060e+12 -2.065060e+12 1.022146e+14 3.853772e+14 3.640737e+16 -9.691559e+11 -9.691559e+11 8.631876e+10 8.631876e+10 8.631876e+10 -1.557574e+11 2.183075e+13 -9.294751e+10 -9.294751e+10 -9.294751e+10 -1.580166e+15 -5.429476e+13 -5.429476e+13 -5.429476e+13 1.671016e+12 1.671016e+12 1.671016e+12 -1.030280e+14 3.988414e+09 3.988414e+09 3.988414e+09 1.872922e+12 4.919569e+12 4.919569e+12 4.919569e+12 -2.663695e+12 -1.130091e+15 -2.720036e+15 -9.029332e+06 -9.029332e+06 -9.029332e+06 6.750384e+13 6.750384e+13 -5.741407e+14 -5.741407e+14 -8.973450e+13 -1.551788e+13 -6.185004e+10 8.651217e+14 8.167214e+11 8.167214e+11 8.329974e+16 8.329974e+16 8.329974e+16 2.022839e+07 2.022839e+07 2.022839e+07 -2.382112e+14 -2.382112e+14 -2.382112e+14 7.554836e+07 7.554836e+07 3.583596e+13 3.583596e+13 -1.310601e+12 -1.310601e+12 -1.025300e+10 -1.025300e+10 -1.025300e+10 -1.368698e+14 -1.368698e+14 -5.997914e+14 -5.997914e+14 6.912494e+10 6.912494e+10 -2.471124e+15 -2.471124e+15 -2.471124e+15 -1.231920e+13 -8.440928e+06 -8.440928e+06 -6.911668e+13 2.253822e+11 2.253822e+11 2.253822e+11 5.733128e+13 6.904956e+13 3.321757e+15 3.321757e+15 3.321757e+15 -1.766674e+13 -1.766674e+13 -2.056019e+12 -2.056019e+12 -2.056019e+12 -6.698168e+14 1.329364e+11 1.329364e+11 1.329364e+11 -8.715680e+11 4.295496e+11 5.515992e+13 7.960354e+12 7.960354e+12 7.660767e+13 7.660767e+13 5.994080e+10 2.589818e+10 2.589818e+10 2.589818e+10 -6.848999e+10 -8.562951e+12 -8.562951e+12 3.701577e+16 3.701577e+16 1.414060e+11 1.414060e+11 1.659328e+06 1.659328e+06 -1.195429e+11 -3.750867e+14 2.997065e+08 2.997065e+08 2.997065e+08 1.583192e+13 -9.883255e+12 2.051967e+07 2.051967e+07 2.051967e+07 -1.059914e+11 -7.536075e+12 -7.536075e+12 1.142153e+12 1.662268e+07 1.662268e+07 1.662268e+07 1.446747e+11 2.188622e+13 -2.560459e+12 5.324670e+06 5.324670e+06 -3.289502e+10 -3.289502e+10 -3.289502e+10 -2.196395e+13 -2.196395e+13 -2.196395e+13 -1.099773e+12 1.326164e+11 1.584800e+07 1.584800e+07 1.584800e+07 -5.244683e+15 -5.244683e+15 -5.244683e+15 -2.821009e+15 1.761848e+07 1.761848e+07 1.761848e+07 -1.290527e+09 4.891759e+12 -8.859734e+11 -2.292376e+10 -2.292376e+10 -1.092715e+13 -5.394041e+09 -3.815238e+10 3.621380e+06 3.621380e+06 3.621380e+06 -1.223360e+04 9.571562e+06 9.571562e+06 9.571562e+06 -8.726315e+09 -8.127025e+13 -8.127025e+13 4.883790e+14 -1.435296e+12 1.367015e+14 1.367015e+14 -6.638825e+11 -6.638825e+11 -6.724740e+05 2.923844e+06 2.923844e+06 -4.686197e+06 -2.955948e+16 -2.955948e+16 -3.923358e+13 -2.501744e+11 1.297790e+07 1.297790e+07 6.281636e+16 1.330758e+07 1.330758e+07 -4.455987e+09 4.642873e+06 8.188299e+06 8.188299e+06 -1.275612e+10 1.349835e+07 1.349835e+07 1.349835e+07 -1.853128e+12 1.898752e+13 1.898752e+13 3.626141e+06 3.626141e+06 7.538295e+06 4.119944e+06 -2.074807e+06 -2.074807e+06 7.520909e+06 4.788647e+07 4.788647e+07 -1.255490e+09 -2.554077e+12 5.584594e+11 -2.888666e+10 -2.888666e+10 8.107745e+07 -1.398981e+12 1.242232e+10 1.242232e+10 2.108956e+16 2.108956e+16 3.645774e+12 -1.375129e+11 1.065749e+07 1.065749e+07 -4.647380e+07 -5.158683e+15 -2.072696e+12 -2.072696e+12 3.069347e+12 1.231001e+14 1.295474e+15 1.182018e+08 1.354097e+07 6.684504e+06 6.684504e+06 9.380324e+06 1.975087e+17 1.975087e+17 2.804165e+16 -1.574786e+15 -1.574786e+15 -1.260859e+14 4.349146e+15 -1.260859e+14 2.644120e+17 -1.929873e+14 5.182705e+15 9.100328e+16 9.100328e+16 9.100328e+16 -1.553832e+17 6.391581e+15 6.391581e+15 6.391581e+15 -2.892184e+15 -2.892184e+15 6.037950e+15 1.316970e+14 1.316970e+14 -4.829762e+14 9.077649e+14 4.978590e+16 4.978590e+16 6.841863e+15 6.796762e+13 5.526267e+13 -2.837622e+15 1.026890e+14 6.129070e+14 6.129070e+14 -3.145808e+14 2.547972e+15 1.630192e+15 2.511763e+16 3.885755e+15 7.813863e+14 7.813863e+14 5.295287e+11 1.418651e+14 4.620743e+13 -1.126777e+13 -2.202317e+16 7.183300e+16 -2.568805e+13 5.072188e+13 5.072188e+13 5.072188e+13 6.202123e+13 -4.210761e+12 -5.472048e+13 2.266430e+15 2.266430e+15 -5.111167e+13 6.380589e+16 6.380589e+16 2.257269e+14 2.997277e+15 2.904322e+14 2.193383e+14 -1.273947e+11 -1.273947e+11 9.901669e+14 9.901669e+14 9.901669e+14 5.434533e+13 5.434533e+13 -1.494258e+14 -1.618813e+13 1.429766e+13 -1.160800e+15 -1.160800e+15 -1.160800e+15 9.847070e+14 1.399154e+14 1.399154e+14 1.168672e+13 2.716964e+13 -8.697285e+14 -8.697285e+14 7.161302e+13 7.359622e+11 7.359622e+11 3.098801e+11 1.411334e+12 -2.268332e+15 2.359309e+13 9.461284e+10 -3.067177e+11 -3.067177e+11 1.393537e+11 1.393537e+11 1.393537e+11 1.425431e+14 -4.174779e+13 -1.865371e+19 2.635215e+14 8.337482e+14 3.489377e+12 -4.895386e+12 4.937203e+21 -6.724861e+18 -6.724861e+18 2.360409e+11 2.360409e+11 -1.019237e+14 -5.528036e+13 7.491496e+15 -1.751266e+12 -1.566755e+12 9.417079e+12 -1.877832e+13 6.348039e+08 -8.300212e+14 -8.300212e+14 -8.300212e+14 -4.306616e+11 -4.002552e+13 -3.275633e+17 -3.275633e+17 -2.406030e+07 1.300839e+12 3.211942e+10 3.211942e+10 4.782040e+08 -9.624090e+09 -3.760295e+14 -3.760295e+14 1.518308e+11 2.879610e+08 2.879610e+08 -3.971354e+15 6.936899e+11 1.337734e+08 2.332491e+10 -3.824580e+16 2.789610e+12 1.317718e+15 -1.457428e+14 7.046632e+15 1.263212e+10 4.208717e+09 2.565770e+08 -2.009610e+08 2.115082e+09 5.475481e+14 1.762686e+06 1.762686e+06 4.381655e+07 2.506667e+07 -3.651958e+11 3.947867e+11 3.947867e+11 2.844180e+07 2.844180e+07 8.076682e+06 -1.919023e+13 1.483109e+07 1.877091e+17 6.059415e+12 1.485127e+07 5.210192e+16 -3.226202e+07 2.903531e+17 -9.740100e+09 -9.740100e+09 2.377848e+07 -8.527619e+07 2.755675e+07 2.755675e+07 2.077934e+07 -2.582305e+06 4.120865e+09 8.054312e+11 9.062248e+06 -3.837576e+13 5.442832e+06 5.442832e+06 5.778458e+06 6.269298e+05 -1.324839e+07 4.916831e+06 2.252595e+06 -1.505763e+11 8.430439e+06 -4.587715e+06 -4.587715e+06 4.458774e+07 1.223098e+07 1.020883e+07 -1.011926e+13 2.061883e+07 5.296352e+06 1.252347e+07 -1.277779e+09 1.697808e+07 1.697808e+07 9.278370e+06 2.706533e+06 8.255262e+11 8.255262e+11 1.828502e+07 1.828502e+07 1.828502e+07 1.364114e+08 2.179974e+07 -9.007617e+07 1.978447e+16 5.788096e+06 2.457009e+07 1.246118e+12 2.522450e+07 2.522450e+07 1.046491e+07 3.628108e+11 2.862880e+07 6.923466e+06 2.634750e+07 7.346140e+06 2.275993e+07 1.154512e+07 1.154512e+07 3.116399e+07 4.698314e+07 1.401236e+07 4.662715e+06 -9.071740e+06 -9.071740e+06 -9.071740e+06 1.096705e+07 1.238615e+07 1.201438e+07 4.592560e+06 4.592560e+06 4.592560e+06 7.317039e+06 8.441448e+05 8.441448e+05 2.109842e+07 1.237795e+07 1.744522e+07 9.442147e+06 2.116664e+07 9.367959e+06 3.731187e+06 1.181394e+07 1.058366e+07 -3.338187e+06 9.361610e+06 9.894854e+06 6.653395e+06 1.860206e+07 1.860206e+07 2.227904e+07 2.227904e+07 8.392034e+06 2.473673e+07 1.307519e+07 3.194061e+06 2.563961e+07 1.503151e+07 1.541702e+07 7.013738e+06 -8.837416e+11 8.152415e+06 1.448299e+07 1.911953e+07 1.990570e+07 1.329063e+07 1.945335e+07 2.376710e+07 2.973998e+07 -1.502357e+16 8.633789e+06 8.219388e+05 1.869477e+07 1.869477e+07 4.034367e+06 4.034367e+06 4.013997e+18 4.013997e+18 9.607606e+06 1.491994e+07 -2.784844e+06 9.455955e+06 3.304274e+06 1.042525e+07 9.499618e+06 1.041898e+07 9.173342e+06 -5.317116e+09 -8.566455e+10 5.324106e+10 -4.442782e+06 2.199391e+06 1.869878e+06 -1.260859e+14 3.367925e+15 2.453756e+16 2.042019e+17 1.975087e+17 2.804165e+16 2.804165e+16 -1.230908e+15 2.360187e+16 -1.553832e+17 -1.553832e+17 -2.892184e+15 7.896798e+15 -4.829762e+14 -4.829762e+14 9.077649e+14 6.841863e+15 1.295474e+15 -2.357795e+15 1.316970e+14 2.466854e+14 1.046963e+14 1.026890e+14 1.026890e+14 1.418651e+14 7.813863e+14 3.315676e+14 1.796313e+14 2.836175e+14 7.113121e+13 2.239089e+14 6.796762e+13 5.295287e+11 2.273189e+14 -1.618813e+13 7.161302e+13 7.359622e+11 1.411334e+12 -1.273947e+11 1.440438e+13 4.176605e+12 9.106630e+11 7.912501e+13 4.850493e+14 6.380589e+16 -5.100650e+16 -1.865371e+19 6.280532e+18 3.249702e+18 -4.174779e+13 1.802901e+13 1.590018e+10 6.348039e+08 6.348039e+08 3.098801e+11 3.098801e+11 -8.697285e+14 -1.361984e+12 4.561102e+12 2.126383e+12 2.385319e+09 -2.406030e+07 -2.406030e+07 1.337734e+08 2.879610e+08 4.993688e+08 3.211942e+10 8.957911e+11 8.957911e+11 1.518308e+11 5.692226e+10 1.782080e+09 1.182018e+08 -3.226202e+07 -3.226202e+07 2.404714e+07 1.762686e+06 4.381655e+07 8.333032e+07 2.377848e+07 2.330829e+06 2.330829e+06 7.841848e+05 6.269298e+05 5.778458e+06 5.778458e+06 9.278370e+06 4.916831e+06 4.916831e+06 9.062248e+06 2.077934e+07 2.077934e+07 1.223098e+07 1.020883e+07 2.755675e+07 3.113169e+07 2.457009e+07 2.061883e+07 2.061883e+07 2.522450e+07 1.252347e+07 1.252347e+07 9.539845e+06 9.442147e+06 1.954148e+07 1.354097e+07 1.354097e+07 1.459912e+07 7.317039e+06 7.317039e+06 7.066621e+06 6.684504e+06 9.380324e+06 4.460773e+06 4.460773e+06 5.437635e+06 7.013738e+06 6.996860e+06 3.731187e+06 1.546197e+06 8.219388e+05 1.013250e+05 1.013250e+05 1.013250e+05 1.013250e+05 1.013250e+05 3.692610e+06 1.261611e+07 7.998797e+06 3.689436e+07 1.521429e+08 -1.500468e+10 -1.500468e+10 -1.500468e+10 -3.931820e+07 -3.931820e+07 -3.931820e+07 -1.362678e+08 -1.362678e+08 3.003170e+06 3.003170e+06 7.328069e+11 7.328069e+11 7.328069e+11 3.401233e+11 3.401233e+11 -2.602211e+10 -2.602211e+10 -2.602211e+10 -7.430315e+10 1.521429e+08 1.521429e+08 3.705222e+09 7.802851e+06 7.802851e+06 7.802851e+06 8.952153e+06 8.952153e+06 1.052651e+07 1.128737e+07 1.128737e+07 1.165499e+07 3.692610e+06 9.201641e+06 1.094992e+07 3.844560e+06 3.844560e+06 2.670528e+06 2.670528e+06 8.779993e+05 -1.629277e+06 -7.063858e+12 -7.063858e+12 -7.063858e+12 -7.190098e+11 -7.190098e+11 -3.608539e+12 -9.179299e+13 -9.179299e+13 -9.179299e+13 -1.023720e+14 -7.556806e+12 6.801967e+10 -1.488419e+12 -1.488419e+12 -1.775336e+12 5.687558e+13 5.687558e+13 1.341407e+13 1.061102e+12 1.061102e+12 1.061102e+12 -4.879342e+15 -4.879342e+15 -4.879342e+15 -1.972545e+15 -1.972545e+15 -1.972545e+15 -3.949928e+09 -3.949928e+09 -3.949928e+09 1.285388e+13 1.285388e+13 1.285388e+13 -2.616100e+11 -2.616100e+11 -2.616100e+11 -9.306794e+10 -1.047409e+16 -1.047409e+16 -1.011007e+12 -1.011007e+12 -1.011007e+12 2.954930e+16 9.786030e+15 -3.133065e+13 -3.133065e+13 3.175066e+08 3.175066e+08 3.175066e+08 -1.003306e+09 -1.003306e+09 -1.681110e+12 -2.118960e+12 -2.118960e+12 7.287398e+11 7.287398e+11 7.287398e+11 1.264795e+08 1.264795e+08 4.155870e+14 4.155870e+14 4.155870e+14 -2.365643e+14 -4.701848e+15 -1.060926e+15 2.271644e+12 2.271644e+12 2.463770e+14 2.463770e+14 2.463770e+14 -3.906058e+15 3.513834e+15 3.513834e+15 3.738796e+13 3.738796e+13 3.738796e+13 6.113455e+08 6.113455e+08 6.113455e+08 1.404140e+15 1.404140e+15 1.404140e+15 2.594025e+13 6.424171e+12 -5.104422e+15 -5.104422e+15 -5.104422e+15 -8.743332e+14 -1.270109e+13 -1.270109e+13 -6.992787e+15 -2.710646e+12 -2.710646e+12 -2.710646e+12 2.452455e+16 2.452455e+16 1.873454e+12 1.873454e+12 -3.947931e+13 -3.947931e+13 -3.947931e+13 3.618351e+15 3.618351e+15 3.618351e+15 -9.754809e+14 -9.754809e+14 -9.754809e+14 1.614073e+16 1.614073e+16 3.498511e+13 3.498511e+13 1.805603e+15 1.805603e+15 1.805603e+15 3.670098e+12 8.657812e+11 8.657812e+11 8.657812e+11 1.800606e+15 -3.045601e+13 -3.045601e+13 -1.466444e+14 -1.466444e+14 -1.466444e+14 -4.046082e+13 -4.046082e+13 -4.046082e+13 -4.106052e+15 2.172841e+15 2.172841e+15 2.172841e+15 -1.117422e+15 -1.117422e+15 -1.117422e+15 5.002656e+16 1.214804e+16 6.057547e+13 6.057547e+13 6.057547e+13 -1.341250e+13 -1.341250e+13 4.301226e+11 4.301226e+11 4.301226e+11 1.064617e+16 1.064617e+16 1.064617e+16 6.358335e+13 -4.833009e+15 -1.003442e+15 -1.003442e+15 -3.971182e+11 -3.971182e+11 -3.971182e+11 -1.098100e+16 -1.098100e+16 5.003853e+14 5.003853e+14 -1.476071e+16 5.623269e+16 5.623269e+16 -1.307823e+14 -1.307823e+14 -1.307823e+14 1.108360e+14 -4.923600e+14 2.360541e+15 2.360541e+15 7.139565e+12 7.139565e+12 2.714645e+13 2.714645e+13 2.714645e+13 -5.811104e+13 -5.811104e+13 2.831698e+09 2.831698e+09 2.831698e+09 -4.680328e+10 -4.680328e+10 -4.680328e+10 2.679009e+13 2.708715e+15 2.938451e+12 2.938451e+12 2.938451e+12 -2.137596e+14 -2.137596e+14 -2.137596e+14 -1.635163e+15 -7.496180e+14 2.708715e+15 4.041163e+14 2.080854e+11 2.080854e+11 2.080854e+11 -9.463233e+13 -9.463233e+13 2.822827e+10 2.822827e+10 2.822827e+10 -1.185112e+14 -1.185112e+14 -1.185112e+14 9.203096e+12 1.098883e+09 1.098883e+09 1.098883e+09 6.767308e+13 9.035557e+14 9.035557e+14 -2.312303e+13 -1.470231e+11 -1.470231e+11 2.981247e+13 5.325862e+13 5.325862e+13 1.971722e+14 1.971722e+14 -9.910017e+14 -4.715823e+13 9.830901e+11 9.830901e+11 9.830901e+11 -2.321665e+13 -1.789631e+09 -1.789631e+09 -2.877702e+15 1.321988e+14 1.321988e+14 5.287293e+13 1.713192e+07 1.713192e+07 1.713192e+07 -1.397621e+08 -1.397621e+08 -1.140852e+13 -1.140852e+13 1.959135e+10 1.959135e+10 -6.468044e+13 3.422496e+11 3.422496e+11 3.422496e+11 -5.190066e+12 -5.190066e+12 -5.190066e+12 -1.060926e+15 8.607096e+10 8.607096e+10 -4.729807e+11 -1.292411e+11 -4.461063e+15 -1.004919e+14 -2.393325e+13 -2.393325e+13 -6.186642e+07 -6.186642e+07 -6.186642e+07 -1.354942e+12 6.129960e+06 6.129960e+06 6.129960e+06 2.402565e+11 2.402565e+11 2.118723e+12 -9.488796e+13 -2.427448e+07 -2.427448e+07 -2.427448e+07 2.737817e+07 2.737817e+07 2.737817e+07 -2.162768e+08 -2.162768e+08 3.377746e+08 3.377746e+08 4.696851e+09 4.696851e+09 2.067754e+10 1.377884e+14 1.377884e+14 -4.621428e+12 -4.621428e+12 1.843509e+11 1.843509e+11 -5.322212e+13 -1.802712e+06 6.902371e+05 6.902371e+05 6.902371e+05 2.178883e+11 6.216412e+07 6.216412e+07 -8.997585e+10 -8.997585e+10 -3.788704e+13 -1.156736e+14 7.562037e+10 1.694827e+10 1.694827e+10 2.898850e+09 2.898850e+09 6.251910e+11 1.858526e+07 1.858526e+07 1.858526e+07 1.984963e+07 1.984963e+07 1.984963e+07 -2.976052e+10 