<?xml version="1.0"?>
 <VTKFile type="UnstructuredGrid" version="1.0" byte_order="LittleEndian" header_type="UInt64">
  <UnstructuredGrid>
    <FieldData>
     <DataArray type="Float64" Name="TimeValue" NumberOfTuples="1" format="ascii">
4e-08
     </DataArray>
    </FieldData>
   <Piece NumberOfPoints="3548" NumberOfCells="3379">
    <PointData>
     <DataArray type="Float64" Name="pointP" format="ascii">
4.227334e+24 6.297403e+24 1.092969e+25 5.941762e+24 1.310693e+25 1.994997e+25 1.568990e+25 6.566441e+23 1.996707e+25 8.698035e+25 4.866095e+25 3.411343e+26 2.846839e+26 4.114353e+25 8.787326e+25 1.448783e+25 4.397330e+25 8.698477e+25 7.278133e+25 1.595120e+25 1.952302e+25 7.952412e+25 1.490381e+25 5.535674e+25 1.148118e+26 7.893984e+25 9.109586e+25 2.786199e+25 9.121103e+25 1.834713e+26 1.624863e+26 1.344051e+26 1.712760e+26 1.790100e+26 5.280266e+25 2.590977e+26 5.560891e+26 2.244979e+26 2.611246e+26 3.759734e+26 5.439576e+26 1.218621e+26 2.610539e+27 2.455060e+27 3.472594e+25 3.969729e+26 1.058478e+26 3.066070e+27 3.381799e+27 4.231713e+25 2.731354e+26 1.191261e+26 2.085171e+26 4.210399e+26 3.111722e+26 5.322822e+26 -8.678386e+24 3.243293e+27 3.861167e+27 5.093986e+26 9.131162e+26 7.757500e+26 1.082324e+27 3.570799e+26 1.210137e+26 -3.581181e+25 1.571941e+27 2.097294e+27 1.495920e+27 6.139716e+26 6.666548e+26 5.032550e+26 8.394917e+26 4.346047e+26 4.503985e+26 3.460810e+26 1.395253e+26 -3.266354e+26 1.409518e+25 -2.292691e+24 7.490132e+24 7.490132e+24 2.118245e+25 3.004837e+24 4.326973e+23 -1.829476e+23 -1.829476e+23 7.774642e+23 6.164699e+23 3.261494e+23 2.413227e+21 1.016165e+22 2.766855e+23 1.118379e+23 -5.269787e+22 1.559531e+23 -7.645362e+22 -6.501859e+22 1.403624e+23 6.803313e+21 -1.838951e+21 1.160066e+21 1.160066e+21 5.498444e+22 7.579781e+20 2.215789e+21 5.784120e+21 -2.539275e+22 2.464615e+21 6.818732e+20 -2.012117e+20 -1.023876e+20 9.307821e+21 -1.957167e+21 7.911649e+21 4.893294e+21 1.113895e+21 -4.874394e+19 -2.498694e+20 -7.944139e+20 5.015906e+20 5.250780e+20 4.136682e+19 -1.640108e+18 2.462598e+19 2.609420e+19 4.029949e+19 3.140629e+19 3.140629e+19 8.633318e+19 2.805942e+19 4.613871e+19 4.613871e+19 -2.080798e+19 6.408574e+19 6.408574e+19 1.000429e+18 1.074031e+19 6.430707e+18 -3.043541e+19 -3.043541e+19 2.838452e+18 2.838452e+18 -1.105529e+19 -2.702591e+18 7.537133e+17 2.542501e+18 1.269434e+18 5.363615e+16 5.363615e+16 2.115015e+17 -6.091948e+15 -4.975004e+15 -2.070400e+15 -2.070400e+15 1.336530e+17 1.336530e+17 1.336530e+17 7.981580e+16 7.141996e+15 7.141996e+15 7.141996e+15 -2.875436e+16 -2.875436e+16 -2.875436e+16 3.192990e+17 6.341141e+18 6.341141e+18 6.341141e+18 1.546223e+20 -4.109900e+20 -4.109900e+20 -4.109900e+20 -6.197993e+20 4.632240e+22 4.632240e+22 4.632240e+22 -2.948435e+22 3.797066e+21 4.694194e+20 4.694194e+20 4.694194e+20 -3.991193e+21 -6.956275e+20 -6.956275e+20 -6.956275e+20 5.498698e+21 5.498698e+21 5.498698e+21 2.172269e+22 -7.638617e+21 2.133091e+23 2.133091e+23 2.133091e+23 -5.166467e+23 -3.298876e+22 -3.298876e+22 -3.298876e+22 4.076854e+22 4.076854e+22 7.035367e+24 7.035367e+24 7.035367e+24 3.520318e+23 -1.668665e+24 1.877382e+26 1.877382e+26 1.877382e+26 8.274793e+26 -6.056757e+27 -1.800832e+24 -1.800832e+24 -1.800832e+24 2.649268e+23 -3.755525e+25 -3.755525e+25 -3.755525e+25 4.056391e+24 4.056391e+24 -4.842625e+24 -4.842625e+24 -4.215899e+25 -4.215899e+25 -4.215899e+25 1.262771e+26 -3.029949e+24 -3.029949e+24 -3.029949e+24 1.506774e+26 8.975590e+24 8.975590e+24 -3.938573e+23 -3.938573e+23 1.729763e+24 1.729763e+24 1.729763e+24 4.377093e+25 4.377093e+25 -1.558400e+26 -1.558400e+26 -1.558400e+26 2.446074e+24 2.446074e+24 1.247204e+23 1.332923e+24 1.332923e+24 1.332923e+24 1.382300e+23 3.686461e+23 3.686461e+23 3.686461e+23 -6.551078e+22 -6.551078e+22 5.609417e+22 5.609417e+22 5.609417e+22 5.736425e+22 5.736425e+22 -6.960242e+22 -6.960242e+22 -6.960242e+22 -9.856729e+22 -9.856729e+22 7.523099e+22 7.523099e+22 7.523099e+22 -5.890083e+22 -5.890083e+22 -3.610485e+17 -3.610485e+17 -3.610485e+17 -4.475157e+17 -1.219749e+21 -1.219749e+21 -1.219749e+21 -2.004267e+21 1.152367e+22 1.152367e+22 1.152367e+22 1.458427e+22 1.458427e+22 2.744312e+19 2.744312e+19 2.744312e+19 -7.783095e+18 -7.783095e+18 -7.783095e+18 6.314059e+18 6.314059e+18 4.140090e+19 4.140090e+19 4.140090e+19 1.433768e+18 1.433768e+18 -5.935074e+18 -5.935074e+18 -5.935074e+18 1.697833e+18 -1.770184e+21 -1.770184e+21 -1.770836e+22 -1.770836e+22 -1.770836e+22 -1.735106e+22 -1.735106e+22 1.111865e+22 1.111865e+22 7.055216e+22 7.055216e+22 7.055216e+22 9.170701e+21 -1.400482e+24 -1.400482e+24 -1.400482e+24 8.346644e+23 2.074741e+23 2.074741e+23 -1.280025e+24 -1.280025e+24 -1.280025e+24 -2.916162e+23 -2.916162e+23 -2.916162e+23 2.864421e+22 2.864421e+22 4.757419e+24 4.757419e+24 4.757419e+24 1.018265e+26 1.018265e+26 -3.335081e+25 -3.335081e+25 2.010365e+25 1.117097e+26 1.117097e+26 1.117097e+26 3.425969e+25 3.425969e+25 9.121103e+25 3.399972e+25 3.399972e+25 3.399972e+25 3.435060e+26 -9.434516e+23 3.907714e+25 -3.807075e+25 -3.807075e+25 -3.807075e+25 -1.530472e+26 -1.530472e+26 -1.530472e+26 -1.698994e+25 -1.698994e+25 -1.698994e+25 6.009163e+24 6.009163e+24 6.009163e+24 -5.444009e+22 -5.444009e+22 -3.596364e+22 -3.596364e+22 -3.596364e+22 -5.790067e+22 -5.790067e+22 8.452792e+21 8.452792e+21 1.356052e+23 1.356052e+23 -1.588113e+22 -1.588113e+22 8.721463e+22 2.645935e+19 2.645935e+19 -1.339512e+20 -1.339512e+20 -1.551033e+19 -1.551033e+19 5.434216e+12 4.442702e+14 5.434216e+12 5.434216e+12 -2.871459e+20 -8.126141e+20 -8.126141e+20 -6.921113e+22 -6.921113e+22 -6.921113e+22 -1.446557e+23 -1.446557e+23 -1.446557e+23 -3.995058e+22 -1.083662e+24 -1.083662e+24 1.925061e+24 1.925061e+24 -5.095547e+24 7.003909e+24 4.472831e+25 7.757500e+26 -5.320310e+25 -5.320310e+25 -6.150811e+25 -6.150811e+25 1.103412e+26 1.624863e+26 1.043082e+25 1.043082e+25 -2.881724e+25 -2.881724e+25 -2.881724e+25 8.563283e+26 -1.546416e+25 1.310693e+25 -5.134554e+23 -5.134554e+23 5.280266e+25 -4.264218e+23 -4.264218e+23 1.247204e+23 -1.799266e+24 -1.799266e+24 8.884033e+25 -7.330572e+23 -7.330572e+23 -7.330572e+23 1.502260e+26 -5.656749e+25 -5.656749e+25 -1.554953e+24 -4.348541e+24 -4.348541e+24 -4.348541e+24 7.411507e+24 7.411507e+24 -1.801362e+24 3.649643e+25 3.649643e+25 6.157919e+25 6.566441e+23 5.495334e+24 7.287537e+25 7.287537e+25 -5.241879e+25 -3.746454e+25 9.805339e+25 9.805339e+25 -2.996452e+24 -8.678386e+24 -1.613819e+25 -1.613819e+25 1.108899e+26 1.994997e+25 -4.444530e+24 6.411273e+24 -1.252380e+25 8.174524e+26 -2.742124e+24 -2.742124e+24 -2.947672e+27 -6.484396e+26 -2.878703e+26 9.438949e+24 9.438949e+24 9.438949e+24 -3.954359e+26 -3.954359e+26 1.394263e+23 1.394263e+23 9.967126e+25 6.190012e+24 -8.918232e+23 -9.508418e+25 -5.010019e+24 -5.010019e+24 -4.779077e+22 1.043272e+24 2.325145e+25 -5.442940e+25 3.758154e+24 3.189751e+24 -7.272985e+24 6.481851e+24 -3.799246e+24 -3.799246e+24 -1.549603e+24 -1.634515e+26 4.734255e+24 2.025904e+25 4.747996e+24 3.679455e+23 3.679455e+23 3.474055e+23 6.675900e+24 8.122892e+23 8.122892e+23 -1.384108e+25 -1.073092e+24 -1.073092e+24 -1.073092e+24 -5.883772e+23 -4.395746e+24 -3.892864e+24 1.671489e+24 1.671489e+24 1.671489e+24 -6.571044e+23 2.163829e+25 -4.400637e+24 3.178128e+24 3.178128e+24 4.570833e+24 4.108617e+24 5.327802e+24 6.564336e+24 -2.861158e+26 1.168064e+24 2.836181e+24 1.491496e+25 1.491496e+25 1.276503e+24 1.276503e+24 3.694227e+24 3.694227e+24 1.261255e+24 1.261255e+24 1.310233e+24 9.461199e+23 5.341287e+23 5.341287e+23 4.727397e+23 4.727397e+23 2.735219e+24 1.764903e+25 9.374123e+22 8.278317e+23 9.940865e+24 3.423157e+24 5.406139e+25 5.406139e+25 4.411858e+25 1.526655e+25 -7.482592e+22 3.067010e+24 3.067010e+24 2.240482e+24 1.384949e+24 2.723283e+25 1.159511e+25 6.366519e+25 -7.023343e+23 -3.571200e+25 5.008122e+23 5.008122e+23 3.936054e+24 -3.565384e+22 -4.800354e+24 -3.195103e+23 2.817020e+23 4.979265e+20 4.979265e+20 4.979265e+20 -1.624189e+20 -1.624189e+20 1.739378e+24 1.799641e+24 -2.134482e+23 2.201315e+24 2.644757e+24 -2.395741e+24 8.646762e+23 2.861339e+23 -4.364912e+24 8.416322e+23 1.570130e+23 6.519618e+23 6.519618e+23 6.519618e+23 1.168705e+24 1.516536e+23 -1.336342e+23 4.386822e+22 8.847091e+21 8.847091e+21 -6.095910e+23 -3.690444e+23 -3.690444e+23 -3.721012e+23 -3.721012e+23 1.054723e+23 2.118847e+23 9.511429e+23 9.511429e+23 4.136794e+23 4.136794e+23 2.833692e+23 -3.374942e+22 -3.374942e+22 -5.053195e+22 2.496200e+24 2.496200e+24 5.265970e+22 5.265970e+22 5.265970e+22 5.714059e+22 -3.479143e+22 -1.075683e+22 -1.541865e+23 -1.541865e+23 -4.972206e+23 2.886118e+22 6.197053e+22 3.715570e+22 -7.301277e+22 9.657149e+23 4.216910e+23 -6.214073e+22 7.266111e+23 7.266111e+23 4.367132e+22 4.367132e+22 2.834237e+21 6.254535e+22 -6.658879e+22 -6.658879e+22 -8.285926e+22 -3.315627e+22 2.886118e+22 -6.052354e+22 -2.675389e+22 -2.675389e+22 -9.121830e+21 3.325148e+23 3.325148e+23 -3.127723e+23 6.996545e+23 6.996545e+23 5.430504e+21 5.430504e+21 -1.999797e+21 -2.329861e+22 -2.329861e+22 -2.329861e+22 -3.515228e+22 -5.269699e+23 1.199401e+22 -1.135478e+21 -1.387988e+21 -1.387988e+21 1.330657e+23 1.330657e+23 -1.770373e+23 1.033920e+22 5.022061e+22 -7.997375e+22 -7.997375e+22 3.946209e+21 3.547936e+23 3.547936e+23 -1.260885e+23 -3.702930e+22 -1.390867e+22 3.078824e+22 3.078824e+22 3.078824e+22 -2.402673e+20 -6.599663e+20 -5.105964e+22 2.419354e+22 2.419354e+22 -1.773047e+22 -1.773047e+22 -1.773047e+22 -4.842457e+21 -5.315972e+22 9.923219e+21 9.923219e+21 -2.761026e+21 1.779889e+22 7.040090e+21 7.040090e+21 7.040090e+21 -3.505078e+22 -9.137016e+21 2.857684e+22 -1.013533e+20 -2.270289e+20 1.042984e+21 -4.380027e+21 4.291014e+21 -1.800872e+22 5.692987e+21 5.692987e+21 -4.242026e+21 -4.242026e+21 -6.530774e+22 -3.382904e+22 1.614792e+21 1.614792e+21 1.614792e+21 4.128805e+22 -2.279635e+20 4.825789e+22 6.153178e+19 1.566302e+20 -1.130366e+21 4.745529e+21 1.962106e+22 -2.022401e+22 5.466948e+21 -1.831033e+21 -1.831033e+21 -5.135815e+20 -5.135815e+20 -5.135815e+20 2.732052e+19 4.977960e+21 -9.384725e+20 1.080534e+21 2.991045e+21 6.016615e+19 -3.049824e+19 5.773851e+18 -2.808790e+19 -2.635662e+20 -2.635662e+20 -2.635662e+20 -2.240727e+20 4.951437e+21 -1.794780e+20 -1.794780e+20 -4.568377e+20 -4.568377e+20 -2.272606e+19 -4.550648e+19 -2.218417e+20 -8.916247e+18 4.246234e+20 3.812291e+18 2.968081e+18 2.968081e+18 2.354249e+19 1.805685e+18 1.805685e+18 -4.909726e+17 -4.909726e+17 4.007992e+18 4.007992e+18 -4.310933e+18 6.158011e+17 6.158011e+17 -5.324729e+18 5.462513e+16 -3.523066e+15 1.414800e+15 -3.426066e+16 -3.426066e+16 -3.426066e+16 1.255432e+23 1.255432e+23 1.255432e+23 -1.775801e+23 -1.775801e+23 -9.118726e+17 -9.118726e+17 -9.118726e+17 -2.770517e+17 -2.794923e+23 -2.794923e+23 6.345983e+22 6.345983e+22 7.338255e+24 7.338255e+24 7.338255e+24 8.408224e+17 8.408224e+17 8.408224e+17 1.428418e+17 4.055537e+19 4.055537e+19 4.055537e+19 -6.505578e+19 1.480211e+19 1.480211e+19 4.314085e+21 4.314085e+21 4.314085e+21 -3.000193e+21 -3.000193e+21 -3.000193e+21 5.162892e+22 5.162892e+22 5.162892e+22 -4.756081e+21 -4.756081e+21 -4.756081e+21 -1.188283e+22 2.334898e+19 2.334898e+19 2.334898e+19 1.234410e+20 1.234410e+20 1.234410e+20 -8.045783e+19 -8.045783e+19 -8.045783e+19 -4.706727e+16 -4.706727e+16 -4.706727e+16 -1.505158e+19 -1.505158e+19 -8.541858e+16 -8.541858e+16 2.880130e+17 3.271684e+17 -1.365179e+16 -1.365179e+16 -1.365179e+16 1.862789e+19 1.862789e+19 -1.065081e+20 -1.065081e+20 -1.065081e+20 1.091878e+20 1.091878e+20 1.091878e+20 -3.123200e+20 -3.123200e+20 -3.123200e+20 -1.047118e+21 -2.052752e+20 -2.052752e+20 -2.052752e+20 -1.049292e+20 3.933569e+21 3.933569e+21 3.933569e+21 7.000174e+21 7.000174e+21 7.000174e+21 2.042873e+21 1.886450e+21 -9.761450e+19 -9.761450e+19 -9.761450e+19 -4.050155e+21 -4.050155e+21 6.904003e+20 6.904003e+20 1.873958e+20 -7.783770e+20 -7.783770e+20 8.791080e+19 8.791080e+19 8.791080e+19 2.691919e+18 2.691919e+18 5.299436e+18 5.299436e+18 5.299436e+18 -3.459984e+19 7.852120e+17 7.852120e+17 7.852120e+17 4.058389e+17 9.562612e+17 8.892253e+14 8.892253e+14 2.833372e+16 2.833372e+16 8.578199e+19 8.578199e+19 8.578199e+19 4.010551e+19 1.737855e+19 -6.213555e+24 -6.213555e+24 -8.563285e+19 3.671032e+21 6.202574e+21 6.202574e+21 6.202574e+21 -7.061286e+21 -3.037610e+23 -3.037610e+23 1.851087e+21 2.636665e+21 2.636665e+21 6.302327e+21 3.057996e+19 3.057996e+19 1.237571e+20 1.237571e+20 1.237571e+20 7.888006e+22 7.888006e+22 7.888006e+22 1.530205e+22 2.165659e+22 -4.216001e+19 7.496202e+23 7.496202e+23 7.496202e+23 9.949146e+21 3.182193e+22 3.182193e+22 2.965724e+19 2.965724e+19 2.721330e+20 1.719813e+23 1.719813e+23 7.434074e+23 7.434074e+23 1.086618e+21 1.086618e+21 1.086618e+21 5.799071e+18 5.799071e+18 1.012307e+18 1.012307e+18 2.472043e+20 1.455918e+20 1.455918e+20 1.455918e+20 3.004199e+19 3.004199e+19 1.757364e+20 1.757364e+20 -7.744544e+19 -7.744544e+19 -2.093148e+18 -2.093148e+18 -3.304563e+19 2.579268e+19 2.579268e+19 4.856412e+19 4.856412e+19 2.083807e+21 2.083807e+21 2.083807e+21 -3.851207e+18 -3.851207e+18 -3.851207e+18 -1.987377e+21 7.897447e+20 4.502021e+20 -5.205216e+19 -5.205216e+19 3.443515e+20 8.805373e+21 2.338016e+19 2.338016e+19 2.801508e+19 2.801508e+19 2.801508e+19 1.042910e+21 1.581144e+22 1.581144e+22 -8.555825e+17 -8.555825e+17 -9.468582e+17 -1.844403e+19 4.577165e+18 4.577165e+18 -3.924369e+18 -3.924369e+18 -3.924369e+18 3.674741e+19 3.674741e+19 -1.867150e+18 -7.572376e+20 -3.907542e+19 -3.907542e+19 8.857691e+16 4.005446e+20 4.005446e+20 3.408097e+20 -4.446387e+18 -4.446387e+18 2.037272e+20 3.623311e+17 3.623311e+17 -2.287844e+21 -2.287844e+21 -1.883101e+18 3.109455e+19 3.109455e+19 1.121722e+19 1.121722e+19 9.252932e+19 8.020586e+18 -6.173373e+19 -6.173373e+19 -7.244652e+19 -2.574230e+19 -1.675230e+21 -1.675230e+21 3.915265e+19 -1.900329e+19 -2.649157e+17 -2.649157e+17 -2.649157e+17 2.255880e+18 2.255880e+18 2.255880e+18 2.454777e+20 2.454777e+20 3.036722e+17 3.036722e+17 3.036722e+17 -7.248697e+20 2.663024e+17 7.640805e+18 1.195924e+18 -3.205275e+17 -3.205275e+17 -3.205275e+17 2.207276e+20 -2.974714e+18 -2.974714e+18 5.861762e+18 5.861762e+18 5.861762e+18 2.551689e+16 -4.098095e+19 1.160884e+19 1.160884e+19 3.436038e+18 3.436038e+18 3.436038e+18 1.012513e+20 -2.837140e+17 6.898272e+20 6.898272e+20 6.898272e+20 -1.369102e+20 -1.369102e+20 3.989232e+20 1.568731e+16 1.033548e+19 1.049449e+19 6.333400e+18 6.333400e+18 3.344777e+18 1.782715e+17 1.782715e+17 1.897220e+15 1.897220e+15 1.897220e+15 7.435080e+18 -4.278164e+18 9.395624e+19 -4.679496e+17 1.447064e+18 -5.589382e+17 3.026395e+20 7.177229e+16 7.177229e+16 9.290767e+15 6.424798e+17 6.424798e+17 -1.594036e+18 1.286973e+16 1.286973e+16 1.286973e+16 -1.116126e+17 -1.116126e+17 8.049299e+18 8.049299e+18 3.604879e+18 -7.676142e+16 -7.676142e+16 -3.776956e+16 -4.797294e+18 2.962030e+19 -4.830164e+16 2.988175e+16 1.527997e+17 1.193279e+19 2.988175e+16 -4.699126e+15 1.417951e+24 1.417951e+24 9.077283e+21 9.077283e+21 9.447096e+23 9.447096e+23 -1.152431e+21 -3.865837e+24 3.126295e+23 1.921556e+23 2.620193e+24 -2.934926e+16 -2.934926e+16 -3.326024e+18 -2.150924e+20 -6.522817e+20 1.999896e+17 1.999896e+17 2.455206e+22 5.136113e+23 2.373608e+24 -5.441267e+22 -5.441267e+22 -5.441267e+22 2.183556e+23 2.183556e+23 2.183556e+23 -6.078286e+22 4.067246e+23 4.067246e+23 2.065612e+22 2.065612e+22 -2.708339e+23 4.618694e+22 9.997670e+22 3.216254e+18 6.556444e+16 -1.596169e+16 -5.663716e+14 -1.350891e+18 -1.350891e+18 1.611103e+20 1.575877e+24 1.234560e+23 1.687942e+23 5.778456e+22 5.778456e+22 -1.540147e+24 7.507153e+20 2.912830e+22 2.643672e+20 2.643672e+20 -9.980569e+18 -8.490291e+16 1.124438e+17 4.628123e+15 4.628123e+15 4.628123e+15 -4.550414e+19 3.573001e+17 1.495852e+18 1.495852e+18 -2.469493e+21 3.485674e+19 3.485674e+19 4.327562e+21 3.425009e+21 1.477250e+19 1.477250e+19 2.550385e+16 2.550385e+16 2.550385e+16 -2.533134e+16 -2.533134e+16 -3.007096e+15 7.125998e+19 -1.769829e+20 -8.089755e+19 1.188130e+20 2.052947e+18 1.759032e+23 1.282713e+21 -1.194642e+21 1.851823e+19 9.084431e+20 2.971315e+19 9.720734e+19 1.118101e+19 1.118101e+19 -1.643381e+18 -1.900992e+17 2.045858e+19 -3.083959e+18 2.207566e+19 -8.555287e+15 5.969873e+18 5.969873e+18 -2.898508e+16 1.465154e+18 4.413133e+18 -5.618276e+16 -5.618276e+16 9.633180e+18 8.103489e+18 -8.356009e+16 2.583032e+18 5.915277e+17 2.042348e+18 -1.758688e+17 1.020065e+19 7.752186e+17 7.752186e+17 7.752186e+17 4.165327e+18 2.440551e+18 2.440551e+18 3.432394e+17 3.432394e+17 7.246385e+17 -3.673407e+18 -3.673407e+18 1.099358e+17 2.017744e+18 8.532963e+17 3.033833e+16 2.846586e+16 -1.703839e+17 8.857691e+16 8.857691e+16 -7.753129e+15 -1.619934e+19 -7.513448e+16 -7.513448e+16 -3.819275e+16 -3.819275e+16 8.931661e+16 2.263482e+15 4.856260e+15 1.969529e+15 1.969529e+15 -2.625072e+25 -2.625072e+25 8.841255e+26 2.424893e+27 1.563872e+27 5.604626e+26 3.112196e+26 8.160581e+26 -2.949080e+22 -2.949080e+22 -2.949080e+22 -2.591050e+22 -2.385187e+22 -2.385187e+22 -2.385187e+22 -7.763145e+23 4.732459e+25 4.732459e+25 1.196648e+26 1.196648e+26 -7.279804e+25 -1.641568e+25 -1.641568e+25 -1.641568e+25 2.953942e+26 -6.599028e+23 -6.599028e+23 -6.599028e+23 -6.460293e+23 1.444618e+21 9.768071e+22 1.607458e+26 1.607458e+26 9.430958e+24 -3.631155e+25 -3.631155e+25 -3.631155e+25 6.545174e+23 6.545174e+23 6.545174e+23 1.110257e+26 1.110257e+26 1.079100e+26 -3.000495e+23 -7.225276e+25 -1.402721e+25 -1.402721e+25 -1.170831e+25 1.409518e+25 2.398944e+24 2.398944e+24 2.398944e+24 -8.977844e+24 -8.977844e+24 1.079100e+26 7.433509e+25 1.261263e+24 3.057323e+25 3.876938e+25 3.876938e+25 9.202953e+24 -1.417084e+23 1.157304e+24 -2.902508e+23 -1.188885e+23 -5.635405e+21 -5.635405e+21 4.650916e+22 1.036456e+22 4.788011e+22 4.788011e+22 4.788011e+22 4.793067e+22 4.793067e+22 -7.076920e+20 1.511141e+21 1.511141e+21 -3.310225e+17 4.259469e+19 4.259469e+19 4.259469e+19 2.787201e+20 2.787201e+20 2.761466e+20 2.761466e+20 2.761466e+20 2.413227e+21 2.413227e+21 -1.905138e+19 4.063057e+16 4.063057e+16 4.063057e+16 -4.286959e+20 -4.286959e+20 -4.286959e+20 1.322531e+21 7.753466e+20 9.526665e+18 9.526665e+18 9.526665e+18 2.409572e+21 2.409572e+21 2.409572e+21 7.447037e+23 7.447037e+23 7.447037e+23 -1.633127e+20 -1.633127e+20 3.661478e+19 3.661478e+19 3.661478e+19 1.492533e+21 1.492533e+21 2.067503e+23 2.067503e+23 2.067503e+23 9.360925e+21 9.360925e+21 4.209397e+21 4.209397e+21 4.209397e+21 3.443012e+18 3.443012e+18 3.443012e+18 -7.516483e+19 -7.516483e+19 -7.516483e+19 -4.029987e+21 -4.029987e+21 1.957700e+18 1.957700e+18 1.957700e+18 -3.894462e+17 -3.894462e+17 3.793794e+15 -6.745070e+16 -6.745070e+16 -6.745070e+16 -1.559285e+17 -2.516801e+18 -2.516801e+18 -2.516801e+18 3.491360e+17 -3.389222e+16 -3.389222e+16 -3.389222e+16 -1.520003e+20 2.122971e+20 -4.859391e+21 -4.859391e+21 -4.859391e+21 -8.289496e+21 8.296894e+16 8.296894e+16 8.296894e+16 1.225188e+21 1.225188e+21 1.225188e+21 1.988218e+22 1.988218e+22 3.757298e+21 3.757298e+21 3.757298e+21 2.895004e+21 -1.664175e+22 -1.664175e+22 1.896136e+21 1.896136e+21 1.559531e+23 -8.139426e+22 -2.744957e+22 1.073658e+20 -3.910865e+24 1.683430e+19 1.036456e+22 -5.957846e+21 -5.957846e+21 2.991110e+18 2.991110e+18 2.991110e+18 1.706513e+18 1.706513e+18 5.028172e+15 5.028172e+15 5.028172e+15 1.756897e+23 1.756897e+23 1.756897e+23 -1.640108e+18 -1.640108e+18 2.215789e+21 2.215789e+21 -1.150352e+21 -1.150352e+21 -1.150352e+21 2.857384e+18 2.857384e+18 2.857384e+18 -1.222161e+20 -1.222161e+20 -1.222161e+20 7.462620e+23 -2.080798e+19 -2.080798e+19 6.818732e+20 6.818732e+20 -1.957167e+21 -1.957167e+21 2.110926e+22 2.110926e+22 1.575017e+21 1.007647e+22 1.007647e+22 1.007647e+22 -4.728833e+22 -1.337082e+24 -7.179823e+22 1.862518e+22 3.689486e+18 3.689486e+18 3.689486e+18 1.011952e+20 1.011952e+20 1.410523e+22 1.410523e+22 1.366124e+23 1.366124e+23 4.098101e+22 4.098101e+22 3.292701e+20 3.292701e+20 -1.788848e+20 1.259872e+22 1.259872e+22 2.220309e+20 2.220309e+20 2.220309e+20 5.133200e+20 7.517597e+21 4.911728e+21 9.249295e+18 9.249295e+18 9.249295e+18 9.296574e+19 9.296574e+19 9.296574e+19 1.224342e+21 2.452801e+18 2.452801e+18 2.452801e+18 3.544662e+18 3.544662e+18 3.544662e+18 8.549320e+18 8.549320e+18 1.993600e+23 -7.678143e+20 -8.555162e+19 -8.555162e+19 4.593406e+19 4.593406e+19 7.811365e+19 3.850650e+19 -4.331793e+21 5.730920e+19 5.958171e+20 5.958171e+20 4.677865e+21 8.642892e+20 5.912410e+19 5.912410e+19 -8.805663e+21 1.176090e+22 1.879341e+20 1.879341e+20 -1.182162e+18 4.654985e+19 4.654985e+19 1.033010e+17 2.251121e+20 2.251121e+20 2.251121e+20 2.574278e+20 9.132304e+20 3.499631e+19 3.499631e+19 3.499631e+19 -7.339705e+17 -7.339705e+17 1.164110e+22 -2.328439e+21 -5.428606e+20 -5.428606e+20 -1.379514e+21 3.218482e+19 5.180756e+19 5.180756e+19 5.180756e+19 -1.172583e+20 2.638206e+19 -8.250906e+17 -8.250906e+17 -8.250906e+17 -1.183470e+18 -8.230236e+17 -8.230236e+17 1.958307e+18 1.958307e+18 3.799844e+20 2.042216e+20 5.941964e+20 -7.481794e+19 1.051940e+19 1.051940e+19 1.051940e+19 -1.534294e+20 -1.534294e+20 -1.629807e+18 -1.629807e+18 -1.629807e+18 8.341302e+19 3.223725e+18 1.657025e+20 1.657025e+20 6.003110e+19 6.003110e+19 3.424502e+20 -1.607148e+23 9.164301e+18 9.164301e+18 9.164301e+18 -3.327786e+18 -3.327786e+18 2.162103e+15 2.162103e+15 2.162103e+15 4.916727e+18 4.916727e+18 2.705850e+19 -7.131781e+18 -7.131781e+18 8.293406e+13 8.293406e+13 1.001942e+17 1.001942e+17 2.238714e+19 5.239886e+20 5.239886e+20 1.162564e+16 1.162564e+16 -6.987534e+19 -2.616414e+18 -7.166969e+18 -7.166969e+18 8.252308e+19 -3.541376e+18 -3.541376e+18 -2.317061e+18 -2.317061e+18 -2.317061e+18 1.756508e+18 3.945907e+17 3.945907e+17 3.945907e+17 3.685153e+18 1.520873e+16 -8.674066e+19 -8.674066e+19 -8.674066e+19 1.423133e+20 -2.559507e+17 2.799517e+18 -3.626547e+17 -6.932368e+17 -1.217844e+18 6.405588e+20 -8.000720e+17 -8.000720e+17 6.548813e+17 -3.246178e+14 -3.246178e+14 -3.246178e+14 -2.800928e+17 -1.811521e+17 1.378934e+19 2.631358e+18 -8.987932e+16 2.232831e+18 -2.586506e+19 -2.883037e+16 -2.883037e+16 9.699144e+17 2.798664e+18 -1.006794e+15 1.374981e+15 -1.707244e+18 -1.707244e+18 7.390132e+17 3.689849e+16 -1.006794e+15 5.349957e+16 5.349957e+16 5.349957e+16 1.938253e+16 2.267112e+18 1.396041e+17 -8.072047e+14 1.312923e+19 1.312923e+19 1.312923e+19 3.081860e+16 3.081860e+16 -8.072047e+14 -1.753263e+17 -1.753263e+17 2.798706e+14 -7.052639e+15 -7.052639e+15 -4.239063e+17 4.260879e+16 4.149617e+15 4.149617e+15 4.149617e+15 1.397198e+17 -6.935113e+15 -6.935113e+15 4.765493e+16 -3.310225e+17 -3.310225e+17 -1.172493e+16 1.993583e+16 2.579879e+15 1.539883e+16 1.539883e+16 4.401905e+16 -2.628010e+15 5.661183e+15 5.661183e+15 -1.412605e+14 -1.172493e+16 -1.172493e+16 6.535661e+15 -1.023876e+20 -5.269787e+22 -1.829476e+23 2.118245e+25 2.118245e+25 5.784120e+21 1.411380e+22 1.411380e+22 2.802530e+23 3.174742e+21 7.774642e+23 7.774642e+23 4.326973e+23 -1.549760e+20 4.180262e+24 -5.455932e+22 3.095013e+23 4.880957e+20 9.685114e+17 1.382108e+17 2.715753e+21 -3.489762e+24 2.240859e+23 -2.387918e+21 2.587515e+18 6.520550e+18 2.556601e+17 -6.947821e+16 7.468805e+21 -7.832147e+15 3.446396e+20 -9.915900e+15 -7.341101e+15 -7.341101e+15 -7.341101e+15 -4.053687e+18 1.113895e+21 1.113895e+21 1.252735e+20 1.218318e+22 -1.838951e+21 -9.036059e+22 4.136682e+19 2.464615e+21 -4.874394e+19 3.140629e+19 2.805942e+19 2.805942e+19 6.408574e+19 -3.043541e+19 -2.498694e+20 6.744303e+18 6.744303e+18 -1.081014e+21 2.609420e+19 2.838452e+18 1.047683e+19 -1.311171e+19 -1.105529e+19 2.582762e+19 -6.294411e+18 6.430707e+18 6.430707e+18 4.613871e+19 1.000429e+18 3.610216e+18 5.363615e+16 2.115015e+17 2.115015e+17 -2.702591e+18 2.065559e+19 2.542501e+18 2.542501e+18 -4.815010e+18 2.867929e+16 2.867929e+16 1.067838e+17 1.067838e+17 -1.384377e+18 7.537133e+17 -7.227532e+17 6.803750e+16 -2.423748e+14 -2.423748e+14 -2.423748e+14 8.420728e+18 3.875331e+20 1.269434e+18 -1.878718e+15 -1.089793e+18 -2.609758e+18 1.598338e+18 5.246953e+16 2.719431e+18 1.366606e+17 1.366606e+17 -3.931325e+16 2.378961e+17 2.378961e+17 1.530479e+15 1.530479e+15 2.182617e+17 -3.273847e+19 6.593029e+17 6.287983e+17 1.608969e+17 -4.867155e+15 1.467188e+17 -2.350117e+16 -2.005584e+17 -1.759939e+17 1.510196e+15 4.227334e+24 6.297403e+24 1.092969e+25 5.941762e+24 1.310693e+25 1.994997e+25 1.568990e+25 6.566441e+23 1.996707e+25 8.698035e+25 4.866095e+25 3.411343e+26 2.846839e+26 4.114353e+25 8.787326e+25 1.448783e+25 4.397330e+25 8.698477e+25 7.278133e+25 1.595120e+25 1.952302e+25 7.952412e+25 1.490381e+25 5.535674e+25 1.148118e+26 7.893984e+25 9.109586e+25 2.786199e+25 9.121103e+25 1.834713e+26 1.624863e+26 1.344051e+26 1.712760e+26 1.790100e+26 5.280266e+25 2.590977e+26 5.560891e+26 2.244979e+26 2.611246e+26 3.759734e+26 5.439576e+26 1.218621e+26 2.610539e+27 2.455060e+27 3.472594e+25 3.969729e+26 1.058478e+26 3.066070e+27 3.381799e+27 4.231713e+25 2.731354e+26 1.191261e+26 2.085171e+26 4.210399e+26 3.111722e+26 5.322822e+26 -8.678386e+24 3.243293e+27 3.861167e+27 5.093986e+26 9.131162e+26 7.757500e+26 1.082324e+27 3.570799e+26 1.210137e+26 -3.581181e+25 1.571941e+27 2.097294e+27 1.495920e+27 6.139716e+26 6.666548e+26 5.032550e+26 8.394917e+26 4.346047e+26 4.503985e+26 3.460810e+26 1.395253e+26 -3.266354e+26 1.409518e+25 -2.292691e+24 7.490132e+24 7.490132e+24 2.118245e+25 3.004837e+24 4.326973e+23 -1.829476e+23 -1.829476e+23 7.774642e+23 6.164699e+23 3.261494e+23 2.413227e+21 1.016165e+22 2.766855e+23 1.118379e+23 -5.269787e+22 1.559531e+23 -7.645362e+22 -6.501859e+22 1.403624e+23 6.803313e+21 -1.838951e+21 1.160066e+21 1.160066e+21 5.498444e+22 7.579781e+20 2.215789e+21 5.784120e+21 -2.539275e+22 2.464615e+21 6.818732e+20 -2.012117e+20 -1.023876e+20 9.307821e+21 -1.957167e+21 7.911649e+21 4.893294e+21 1.113895e+21 -4.874394e+19 -2.498694e+20 -7.944139e+20 5.015906e+20 5.250780e+20 4.136682e+19 -1.640108e+18 2.462598e+19 2.609420e+19 4.029949e+19 3.140629e+19 3.140629e+19 8.633318e+19 2.805942e+19 4.613871e+19 4.613871e+19 -2.080798e+19 6.408574e+19 6.408574e+19 1.000429e+18 1.074031e+19 6.430707e+18 -3.043541e+19 -3.043541e+19 2.838452e+18 2.838452e+18 -1.105529e+19 -2.702591e+18 7.537133e+17 2.542501e+18 1.269434e+18 5.363615e+16 5.363615e+16 2.115015e+17 -6.091948e+15 -4.975004e+15 -2.070400e+15 -2.070400e+15 1.336530e+17 1.336530e+17 1.336530e+17 7.981580e+16 7.141996e+15 7.141996e+15 7.141996e+15 -2.875436e+16 -2.875436e+16 -2.875436e+16 3.192990e+17 6.341141e+18 6.341141e+18 6.341141e+18 1.546223e+20 -4.109900e+20 -4.109900e+20 -4.109900e+20 -6.197993e+20 4.632240e+22 4.632240e+22 4.632240e+22 -2.948435e+22 3.797066e+21 4.694194e+20 4.694194e+20 4.694194e+20 -3.991193e+21 -6.956275e+20 -6.956275e+20 -6.956275e+20 5.498698e+21 5.498698e+21 5.498698e+21 2.172269e+22 -7.638617e+21 2.133091e+23 2.133091e+23 2.133091e+23 -5.166467e+23 -3.298876e+22 -3.298876e+22 -3.298876e+22 4.076854e+22 4.076854e+22 7.035367e+24 7.035367e+24 7.035367e+24 3.520318e+23 -1.668665e+24 1.877382e+26 1.877382e+26 1.877382e+26 8.274793e+26 -6.056757e+27 -1.800832e+24 -1.800832e+24 -1.800832e+24 2.649268e+23 -3.755525e+25 -3.755525e+25 -3.755525e+25 4.056391e+24 4.056391e+24 -4.842625e+24 -4.842625e+24 -4.215899e+25 -4.215899e+25 -4.215899e+25 1.262771e+26 -3.029949e+24 -3.029949e+24 -3.029949e+24 1.506774e+26 8.975590e+24 8.975590e+24 -3.938573e+23 -3.938573e+23 1.729763e+24 1.729763e+24 1.729763e+24 4.377093e+25 4.377093e+25 -1.558400e+26 -1.558400e+26 -1.558400e+26 2.446074e+24 2.446074e+24 1.247204e+23 1.332923e+24 1.332923e+24 1.332923e+24 1.382300e+23 3.686461e+23 3.686461e+23 3.686461e+23 -6.551078e+22 -6.551078e+22 5.609417e+22 5.609417e+22 5.609417e+22 5.736425e+22 5.736425e+22 -6.960242e+22 -6.960242e+22 -6.960242e+22 -9.856729e+22 -9.856729e+22 7.523099e+22 7.523099e+22 7.523099e+22 -5.890083e+22 -5.890083e+22 -3.610485e+17 -3.610485e+17 -3.610485e+17 -4.475157e+17 -1.219749e+21 -1.219749e+21 -1.219749e+21 -2.004267e+21 1.152367e+22 1.152367e+22 1.152367e+22 1.458427e+22 1.458427e+22 2.744312e+19 2.744312e+19 2.744312e+19 -7.783095e+18 -7.783095e+18 -7.783095e+18 6.314059e+18 6.314059e+18 4.140090e+19 4.140090e+19 4.140090e+19 1.433768e+18 1.433768e+18 -5.935074e+18 -5.935074e+18 -5.935074e+18 1.697833e+18 -1.770184e+21 -1.770184e+21 -1.770836e+22 -1.770836e+22 -1.770836e+22 -1.735106e+22 -1.735106e+22 1.111865e+22 1.111865e+22 7.055216e+22 7.055216e+22 7.055216e+22 9.170701e+21 -1.400482e+24 -1.400482e+24 -1.400482e+24 8.346644e+23 2.074741e+23 2.074741e+23 -1.280025e+24 -1.280025e+24 -1.280025e+24 -2.916162e+23 -2.916162e+23 -2.916162e+23 2.864421e+22 2.864421e+22 4.757419e+24 4.757419e+24 4.757419e+24 1.018265e+26 1.018265e+26 -3.335081e+25 -3.335081e+25 2.010365e+25 1.117097e+26 1.117097e+26 1.117097e+26 3.425969e+25 3.425969e+25 9.121103e+25 3.399972e+25 3.399972e+25 3.399972e+25 3.435060e+26 -9.434516e+23 3.907714e+25 -3.807075e+25 -3.807075e+25 -3.807075e+25 -1.530472e+26 -1.530472e+26 -1.530472e+26 -1.698994e+25 -1.698994e+25 -1.698994e+25 6.009163e+24 6.009163e+24 6.009163e+24 -5.444009e+22 -5.444009e+22 -3.596364e+22 -3.596364e+22 -3.596364e+22 -5.790067e+22 -5.790067e+22 8.452792e+21 8.452792e+21 1.356052e+23 1.356052e+23 -1.588113e+22 -1.588113e+22 8.721463e+22 2.645935e+19 2.645935e+19 -1.339512e+20 -1.339512e+20 -1.551033e+19 -1.551033e+19 5.434216e+12 4.442702e+14 5.434216e+12 5.434216e+12 -2.871459e+20 -8.126141e+20 -8.126141e+20 -6.921113e+22 -6.921113e+22 -6.921113e+22 -1.446557e+23 -1.446557e+23 -1.446557e+23 -3.995058e+22 -1.083662e+24 -1.083662e+24 1.925061e+24 1.925061e+24 -5.095547e+24 7.003909e+24 4.472831e+25 7.757500e+26 -5.320310e+25 -5.320310e+25 -6.150811e+25 -6.150811e+25 1.103412e+26 1.624863e+26 1.043082e+25 1.043082e+25 -2.881724e+25 -2.881724e+25 -2.881724e+25 8.563283e+26 -1.546416e+25 1.310693e+25 -5.134554e+23 -5.134554e+23 5.280266e+25 -4.264218e+23 -4.264218e+23 1.247204e+23 -1.799266e+24 -1.799266e+24 8.884033e+25 -7.330572e+23 -7.330572e+23 -7.330572e+23 1.502260e+26 -5.656749e+25 -5.656749e+25 -1.554953e+24 -4.348541e+24 -4.348541e+24 -4.348541e+24 7.411507e+24 7.411507e+24 -1.801362e+24 3.649643e+25 3.649643e+25 6.157919e+25 6.56