<?xml version="1.0"?>
 <VTKFile type="UnstructuredGrid" version="1.0" byte_order="LittleEndian" header_type="UInt64">
  <UnstructuredGrid>
    <FieldData>
     <DataArray type="Float64" Name="TimeValue" NumberOfTuples="1" format="ascii">
0.00035
     </DataArray>
    </FieldData>
   <Piece NumberOfPoints="3662" NumberOfCells="3444">
    <PointData>
     <DataArray type="Float64" Name="pointP" format="ascii">
9.867873e+05 9.869625e+05 9.882156e+05 9.871179e+05 9.866887e+05 9.874315e+05 9.870248e+05 9.845808e+05 9.826083e+05 9.799746e+05 9.759779e+05 9.712677e+05 9.662276e+05 9.586322e+05 9.555884e+05 9.489682e+05 9.414906e+05 9.372044e+05 9.343719e+05 9.271406e+05 9.229544e+05 9.155525e+05 9.075272e+05 9.033710e+05 8.942530e+05 8.944359e+05 8.806160e+05 8.776942e+05 8.699048e+05 8.658236e+05 8.633742e+05 8.571404e+05 8.526768e+05 8.462517e+05 8.391348e+05 8.282531e+05 8.233464e+05 8.136113e+05 8.001873e+05 7.934294e+05 7.865000e+05 7.774256e+05 7.669111e+05 7.557537e+05 7.489175e+05 7.410254e+05 7.279687e+05 7.145334e+05 7.057217e+05 6.949431e+05 6.813010e+05 6.703276e+05 6.575868e+05 6.428565e+05 6.306935e+05 6.188864e+05 6.053554e+05 5.953886e+05 5.823638e+05 5.726378e+05 5.613616e+05 5.519588e+05 5.383798e+05 5.255333e+05 5.094555e+05 5.015350e+05 4.872998e+05 4.771085e+05 4.663408e+05 4.539805e+05 4.417565e+05 4.312697e+05 4.200208e+05 4.095380e+05 3.980641e+05 3.875071e+05 3.760110e+05 3.634734e+05 3.509100e+05 3.393109e+05 3.292493e+05 3.184822e+05 3.062515e+05 2.965702e+05 2.863498e+05 2.758438e+05 2.647527e+05 2.542955e+05 2.440762e+05 2.340105e+05 2.233344e+05 2.124889e+05 2.034727e+05 1.921079e+05 1.828966e+05 1.736306e+05 1.628072e+05 1.538951e+05 1.453353e+05 1.366457e+05 1.278129e+05 1.192499e+05 1.112817e+05 1.023169e+05 9.514582e+04 8.614398e+04 7.869324e+04 7.184770e+04 6.467368e+04 5.872882e+04 5.302523e+04 4.604342e+04 4.023799e+04 3.466266e+04 2.884181e+04 2.499864e+04 1.902384e+04 1.371408e+04 9.940818e+03 6.130575e+03 1.868404e+03 -3.812194e+03 -7.895134e+03 -7.895134e+03 1.218124e+05 1.460922e+05 1.575221e+05 1.587513e+05 1.617835e+05 1.664545e+05 1.702416e+05 1.702416e+05 1.707958e+05 1.725532e+05 1.740182e+05 1.740182e+05 1.785962e+05 1.785962e+05 1.841979e+05 1.870751e+05 1.882007e+05 1.921537e+05 1.963747e+05 2.071037e+05 2.071037e+05 2.194426e+05 2.194426e+05 2.265030e+05 2.416010e+05 2.452106e+05 2.548352e+05 2.596601e+05 2.735378e+05 2.833788e+05 2.928634e+05 3.084610e+05 3.132114e+05 3.303084e+05 3.481689e+05 3.625547e+05 3.758170e+05 3.758170e+05 3.892882e+05 4.177177e+05 4.177177e+05 4.510486e+05 4.630742e+05 4.630742e+05 4.923924e+05 5.257517e+05 5.257517e+05 5.636928e+05 5.890059e+05 6.346874e+05 6.346874e+05 6.697257e+05 7.438124e+05 7.936080e+05 8.852344e+05 9.212175e+05 1.199123e+05 2.164276e+05 2.164276e+05 2.164276e+05 2.220667e+05 1.850566e+05 1.850566e+05 1.850566e+05 1.925097e+05 1.925097e+05 2.312978e+05 2.312978e+05 2.312978e+05 2.333747e+05 2.296492e+05 1.064438e+05 1.969854e+05 1.969854e+05 1.911188e+05 2.184418e+05 2.184418e+05 2.184418e+05 2.140554e+05 2.103011e+05 4.591161e+05 4.591161e+05 4.591161e+05 4.445002e+05 1.428125e+05 1.428125e+05 1.428125e+05 1.392093e+05 1.353797e+05 1.353797e+05 2.100912e+05 2.100912e+05 1.849693e+05 1.810329e+05 1.199123e+05 1.199123e+05 1.620121e+05 1.620121e+05 1.620121e+05 1.594684e+05 1.538891e+05 1.538891e+05 1.579659e+05 1.979534e+05 1.979534e+05 1.979534e+05 1.985262e+05 1.914910e+05 2.077381e+05 2.071004e+05 1.572004e+05 1.572004e+05 1.572004e+05 1.485620e+05 7.902396e+04 5.884594e+04 4.399612e+04 5.884594e+04 3.288846e+05 3.288846e+05 3.288846e+05 3.926784e+05 3.926784e+05 3.926784e+05 3.766867e+05 1.358168e+04 5.974455e+03 1.358168e+04 1.358168e+04 3.250843e+05 3.250843e+05 3.250843e+05 3.274337e+05 5.209552e+05 5.209552e+05 5.209552e+05 5.051546e+05 6.214412e+05 6.214412e+05 6.214412e+05 5.870100e+05 5.870100e+05 4.607443e+04 4.607443e+04 4.607443e+04 4.242966e+04 1.003190e+05 1.003190e+05 1.003190e+05 9.193809e+04 9.193809e+04 7.142175e+05 7.142175e+05 7.142175e+05 7.329584e+05 2.516558e+05 2.516558e+05 2.516558e+05 2.487606e+05 2.487606e+05 -1.373897e+04 -1.017035e+04 7.197425e+05 7.197425e+05 7.197425e+05 6.981634e+05 7.835594e+05 7.835594e+05 7.835594e+05 8.163685e+05 8.163685e+05 3.445548e+05 3.445548e+05 3.445548e+05 3.359531e+05 7.674676e+05 7.674676e+05 7.674676e+05 7.414318e+05 3.466266e+04 5.046665e+05 5.046665e+05 5.046665e+05 3.941864e+05 3.941864e+05 3.941864e+05 3.936304e+05 2.920300e+05 2.920300e+05 2.920300e+05 2.947186e+05 1.538951e+05 1.167381e+05 1.167381e+05 1.167381e+05 1.133216e+05 2.261578e+05 2.261578e+05 2.261578e+05 2.229915e+05 2.229915e+05 -1.017035e+04 -1.017035e+04 -1.373897e+04 5.967163e+05 5.967163e+05 5.967163e+05 6.440514e+05 6.440514e+05 2.455814e+05 2.510929e+05 2.510929e+05 4.775787e+05 4.775787e+05 4.775787e+05 5.118223e+05 5.118223e+05 4.339120e+05 4.339120e+05 4.339120e+05 4.439409e+05 4.286846e+04 3.465517e+04 4.286846e+04 4.286846e+04 5.172554e+04 1.911717e+05 1.911717e+05 1.911717e+05 1.992307e+05 2.101782e+05 2.218628e+05 2.218628e+05 1.378954e+05 1.378954e+05 1.221955e+05 1.221955e+05 2.372634e+05 2.372634e+05 2.372634e+05 2.529936e+05 2.529936e+05 1.288681e+05 1.288681e+05 1.288681e+05 1.284038e+05 1.218757e+05 1.746028e+05 1.585222e+05 3.103221e+05 3.103221e+05 3.103221e+05 3.043547e+05 3.650610e+05 3.650610e+05 3.650610e+05 3.566664e+05 2.508348e+05 2.508348e+05 2.508348e+05 4.148060e+05 4.148060e+05 4.148060e+05 1.411981e+05 1.411981e+05 1.411981e+05 4.818540e+05 4.818540e+05 4.818540e+05 5.030490e+04 5.030490e+04 5.030490e+04 4.923971e+04 4.251911e+04 1.490169e+05 1.490169e+05 1.490169e+05 6.312114e+04 6.312114e+04 6.433238e+04 2.922977e+05 2.922977e+05 2.922977e+05 3.017793e+05 1.767055e+05 1.767055e+05 1.767055e+05 1.757516e+05 1.335436e+05 1.335436e+05 6.296718e+05 6.296718e+05 6.296718e+05 6.042581e+05 1.304478e+04 1.304478e+04 1.304478e+04 1.380497e+04 7.964318e+04 7.964318e+04 7.964318e+04 8.140299e+04 5.883373e+05 5.883373e+05 5.883373e+05 3.692790e+05 3.692790e+05 3.692790e+05 3.690040e+05 1.986914e+05 1.986914e+05 1.986914e+05 1.991138e+05 1.975489e+05 1.975489e+05 1.975489e+05 1.923115e+05 2.710935e+05 2.710935e+05 2.710935e+05 2.763100e+05 8.291194e+05 8.291194e+05 8.291194e+05 8.315340e+05 8.315340e+05 8.315340e+05 8.168254e+05 8.108675e+05 8.108675e+05 8.108675e+05 7.891157e+05 7.678115e+05 7.678115e+05 7.463688e+05 4.242202e+05 4.242202e+05 4.154167e+05 7.654320e+04 7.654320e+04 7.938894e+04 2.486180e+05 2.486180e+05 2.486180e+05 2.506421e+05 3.294913e+05 3.294913e+05 3.294913e+05 8.372959e+05 8.372959e+05 8.335214e+05 3.743475e+05 3.743475e+05 3.744355e+05 2.590530e+05 7.837345e+05 7.824428e+05 1.056408e+05 1.056408e+05 9.977208e+04 8.816650e+05 8.816650e+05 8.816650e+05 9.152530e+05 3.265459e+05 3.265459e+05 6.985524e+05 6.985524e+05 6.985524e+05 8.750376e+05 8.750376e+05 8.750376e+05 8.684130e+05 8.684130e+05 7.970623e+05 7.970623e+05 7.970623e+05 8.335916e+05 7.734507e+05 7.734507e+05 7.734507e+05 7.382276e+05 7.382276e+05 1.400065e+05 1.400065e+05 1.400065e+05 1.335294e+05 1.335294e+05 6.280685e+05 6.280685e+05 6.600584e+05 6.600584e+05 7.741539e+05 7.741539e+05 7.741539e+05 6.522000e+05 6.522000e+05 6.522000e+05 6.958563e+05 1.109953e+05 1.109953e+05 1.109953e+05 1.099185e+05 1.099185e+05 1.742594e+03 1.742594e+03 1.742594e+03 9.744455e+03 9.744455e+03 2.108045e+05 2.108045e+05 2.108045e+05 2.269329e+05 2.269329e+05 3.667482e+05 3.667482e+05 3.667482e+05 3.712833e+05 3.712833e+05 4.355482e+05 4.355482e+05 4.355482e+05 4.684852e+05 4.111285e+05 4.111285e+05 4.754341e+05 4.754341e+05 4.754341e+05 4.548768e+05 4.548768e+05 7.872126e+04 7.872126e+04 7.872126e+04 8.511428e+04 8.511428e+04 1.705364e+05 1.705364e+05 1.705364e+05 1.887886e+05 1.887886e+05 1.740704e+05 1.740704e+05 1.567402e+05 1.567402e+05 2.731318e+05 2.731318e+05 2.876552e+05 2.876552e+05 1.764685e+05 1.583241e+05 1.583241e+05 2.543265e+05 2.543265e+05 2.543265e+05 2.576939e+05 2.576939e+05 2.274132e+05 2.274132e+05 1.401933e+05 1.401933e+05 1.401933e+05 1.433623e+05 2.063905e+05 9.502723e+04 8.863394e+04 1.680600e+05 1.680600e+05 1.680600e+05 1.701658e+05 1.701658e+05 8.945928e+04 8.945928e+04 8.074298e+04 7.695361e+04 8.134190e+04 4.650035e+05 4.650035e+05 4.650035e+05 4.503034e+05 5.048728e+05 5.048728e+05 4.912203e+05 2.145696e+05 2.145696e+05 2.145696e+05 1.916201e+04 1.916201e+04 1.916201e+04 1.617384e+04 1.553263e+04 7.973831e+05 7.973831e+05 7.973831e+05 3.068619e+05 8.285840e+04 2.910529e+04 2.910529e+04 7.853792e+05 7.853792e+05 4.872998e+05 4.681012e+05 4.681012e+05 4.681012e+05 5.501535e+05 5.501535e+05 5.501535e+05 5.527053e+05 9.882156e+05 9.431084e+05 9.431084e+05 9.243776e+05 9.243776e+05 9.243776e+05 9.460350e+05 1.469326e+05 1.469326e+05 1.421227e+05 1.736306e+05 9.614951e+05 9.614951e+05 8.389980e+05 8.389980e+05 2.061986e+05 2.061986e+05 5.819228e+04 5.819228e+04 5.819228e+04 9.262157e+05 9.262157e+05 9.372657e+05 -9.874355e+03 -9.874355e+03 -6.281318e+03 8.110750e+05 9.083188e+05 9.037324e+05 9.037324e+05 9.002578e+05 4.438335e+05 4.438335e+05 4.438335e+05 4.590287e+05 6.703276e+05 6.608185e+05 9.871179e+05 9.242468e+05 7.365359e+05 7.365359e+05 6.630156e+05 6.630156e+05 6.630156e+05 6.808919e+05 1.932757e+05 1.932757e+05 1.834989e+05 1.834989e+05 3.904289e+05 8.847753e+05 8.847753e+05 8.547900e+05 5.187697e+05 5.187697e+05 5.187697e+05 4.604342e+04 9.845808e+05 9.034792e+05 5.897786e+05 5.897786e+05 5.897786e+05 5.797664e+05 4.821244e+04 4.821244e+04 4.753072e+04 5.658924e+05 5.658924e+05 5.828275e+05 9.678400e+04 9.678400e+04 2.306350e+05 2.306350e+05 9.531064e+05 8.001873e+05 7.766483e+05 5.574007e+05 9.016405e+05 9.016405e+05 6.816746e+05 6.970249e+04 6.634898e+04 6.634898e+04 1.651489e+05 1.651489e+05 1.585454e+05 1.585454e+05 8.569020e+05 8.569020e+05 4.924099e+05 9.026354e+05 4.350389e+05 4.350389e+05 4.319784e+05 6.059418e+05 6.059418e+05 6.059418e+05 9.308214e+05 9.308214e+05 2.886006e+05 2.976256e+04 2.976256e+04 6.406278e+05 6.223501e+05 7.283490e+05 3.756516e+05 -3.812194e+03 1.868404e+03 8.696944e+05 5.279382e+05 7.117223e+03 7.117223e+03 7.117223e+03 1.284409e+03 8.173412e+05 -7.103676e+03 7.433642e+04 7.433642e+04 7.145334e+05 6.422221e+05 1.244106e+05 1.244106e+05 8.571525e+05 8.571525e+05 2.256522e+04 2.256522e+04 1.668003e+05 4.811011e+05 4.811011e+05 1.025464e+05 1.658391e+05 2.805545e+05 2.854499e+05 4.762652e+05 4.762652e+05 4.417188e+05 4.417188e+05 8.725396e+04 2.754161e+05 9.075520e+05 5.083079e+03 2.693595e+05 6.573944e+05 7.671946e+05 1.263326e+03 1.158016e+05 1.235690e+05 1.573566e+05 6.310642e+05 6.112403e+05 9.102919e+05 9.102919e+05 4.746212e+05 4.439384e+05 7.586884e+05 1.384822e+05 7.511013e+05 7.511013e+05 6.721374e+05 6.721374e+05 6.721374e+05 2.374415e+05 4.453136e+05 5.900629e+04 7.758849e+05 7.781998e+05 7.617233e+05 7.617233e+05 7.617233e+05 5.676952e+05 5.676952e+05 5.676952e+05 5.938288e+05 9.049427e+05 4.343638e+05 4.246429e+05 2.511198e+05 2.511198e+05 2.511198e+05 6.379041e+05 6.379041e+05 6.379041e+05 6.761096e+05 5.367887e+05 5.367887e+05 5.461747e+05 3.935245e+05 3.773465e+05 8.792221e+04 9.171302e+04 7.207669e+04 7.207669e+04 6.926353e+04 2.981219e+04 2.981219e+04 2.796907e+04 2.796907e+04 1.446032e+05 8.721783e+05 2.159268e+05 8.830235e+05 8.500307e+05 8.532093e+05 8.532093e+05 8.208713e+05 8.208713e+05 7.125348e+05 7.235703e+05 3.491028e+05 7.853304e+05 7.853304e+05 6.515861e+05 6.515861e+05 7.531332e+05 3.019415e+05 3.019415e+05 3.019415e+05 7.330261e+05 3.023129e+05 4.030805e+04 4.030805e+04 4.030805e+04 4.349288e+04 4.349288e+04 5.647574e+05 5.589795e+05 8.259762e+05 8.259762e+05 8.676880e+05 1.673614e+04 2.050620e+04 5.179987e+05 5.179987e+05 4.471509e+05 5.829563e+05 7.897265e+05 5.671109e+04 5.671109e+04 5.671109e+04 6.432498e+04 8.506326e+05 8.506326e+05 8.261132e+05 8.468854e+05 7.921058e+05 7.921058e+05 1.673214e+05 1.673214e+05 1.673214e+05 1.886822e+05 7.852566e+04 1.878920e+05 1.788924e+05 1.788924e+05 4.079652e+05 3.346831e+05 3.346831e+05 3.483171e+05 6.542181e+05 6.248560e+05 6.248560e+05 7.742354e+05 7.742354e+05 -9.893025e+03 3.910825e+05 3.910825e+05 2.378661e+05 2.219169e+05 2.219169e+05 3.188296e+05 3.159302e+05 4.192091e+05 7.343565e+05 7.524680e+04 7.524680e+04 7.524680e+04 1.259405e+05 7.719793e+05 7.521260e+05 2.840685e+05 2.840685e+05 7.041922e+05 7.041922e+05 7.041922e+05 5.128663e+05 5.128663e+05 5.128663e+05 4.321598e+05 1.528992e+05 4.989985e+05 4.989985e+05 4.989985e+05 2.469459e+04 8.208718e+05 1.299922e+05 1.422486e+05 3.996480e+05 3.840607e+05 3.840607e+05 4.886302e+05 3.572876e+05 7.740223e+05 7.640055e+05 7.640055e+05 3.320197e+05 7.164848e+05 7.164848e+05 7.283716e+05 7.183154e+05 7.259412e+05 6.936533e+05 6.936533e+05 7.100397e+05 4.705909e+05 4.705909e+05 4.706516e+05 4.706516e+05 6.797175e+05 6.797175e+05 6.427245e+05 6.427245e+05 3.029054e+05 7.777719e+05 7.283569e+05 3.607148e+05 3.607148e+05 6.180686e+05 1.676538e+03 6.461553e+05 6.549470e+05 5.910616e+05 5.910616e+05 2.395565e+05 8.345874e+04 5.338369e+05 6.850216e+05 6.841689e+05 6.841689e+05 7.114317e+04 5.163179e+05 5.163179e+05 5.488548e+05 2.833248e+05 2.833248e+05 2.833248e+05 1.934292e+05 4.405130e+05 4.944068e+04 4.944068e+04 5.093112e+04 5.997287e+05 5.997287e+05 4.990436e+05 6.946801e+05 6.946801e+05 6.946801e+05 3.914190e+05 7.258950e+05 4.235075e+05 5.286410e+05 5.605534e+05 3.406554e+05 3.254637e+05 3.254637e+05 1.632695e+05 1.565755e+05 1.565755e+05 3.271831e+04 2.736425e+04 1.466306e+05 1.387868e+05 1.387868e+05 6.759969e+05 6.759969e+05 6.759969e+05 6.672868e+05 6.305557e+05 6.305557e+05 2.044359e+05 7.269784e+05 5.551645e+05 3.554591e+05 3.554591e+05 -7.271545e+03 -7.271545e+03 1.044188e+05 7.358676e+05 7.358676e+05 2.274603e+05 6.065414e+05 5.743885e+05 5.743885e+05 3.979839e+05 3.979839e+05 5.415472e+05 5.415472e+05 3.360736e+05 3.096966e+05 1.199418e+05 5.136852e+05 6.831072e+05 6.831072e+05 6.326521e+05 4.663012e+05 4.663012e+05 4.336589e+05 4.336589e+05 -7.495997e+03 3.052274e+05 1.677748e+05 1.765152e+05 3.591675e+05 3.472486e+05 1.022005e+05 4.231004e+05 4.231004e+05 4.231004e+05 6.481391e+05 6.481391e+05 6.817259e+05 1.170352e+05 1.170352e+05 1.170352e+05 7.129287e+04 7.129287e+04 5.490890e+05 5.490890e+05 5.708496e+05 6.607902e+05 6.408523e+05 2.740520e+05 5.911590e+05 5.911590e+05 5.746706e+05 3.340009e+05 6.141763e+05 6.141763e+05 4.102559e+05 1.551302e+05 1.551302e+05 1.551302e+05 1.409443e+05 4.811629e+05 8.490619e+03 1.960208e+04 3.329029e+04 5.411943e+04 4.630702e+05 4.649416e+05 1.955782e+05 6.858034e+05 5.904133e+05 5.904133e+05 5.904133e+05 6.025797e+05 1.825167e+05 6.324229e+05 5.586583e+05 5.586547e+05 3.938044e+05 3.938044e+05 3.938044e+05 2.563939e+05 2.563939e+05 2.563939e+05 2.887267e+05 2.887267e+05 5.637620e+05 5.620063e+05 5.620063e+05 5.620063e+05 2.813799e+05 4.947263e+05 4.947263e+05 4.947263e+05 3.198967e+05 4.090256e+05 4.090256e+05 4.090256e+05 9.823839e+04 9.823839e+04 9.823839e+04 4.732377e+04 1.673798e+05 5.416267e+05 5.416267e+05 4.988405e+05 6.176935e+05 2.232803e+05 2.027339e+05 2.027339e+05 2.027339e+05 3.466248e+05 5.279006e+05 5.222529e+05 1.110463e+05 1.014023e+05 3.147459e+05 1.673961e+04 5.339735e+05 5.339735e+05 5.737466e+05 5.865160e+05 4.571239e+05 2.907151e+05 5.437270e+05 1.959978e+05 1.959978e+05 2.734300e+05 3.262512e+05 2.464623e+05 2.464623e+05 2.410955e+05 2.231398e+05 7.986196e+04 7.986196e+04 3.838856e+05 3.838856e+05 3.958137e+05 4.354723e+05 5.229407e+05 5.096235e+05 2.920654e+05 3.053307e+05 4.489501e+05 5.894712e+05 5.606536e+05 9.335415e+04 3.612887e+04 3.612887e+04 3.612887e+04 5.149850e+05 5.149850e+05 3.583236e+05 3.583236e+05 3.457713e+05 4.884871e+05 4.335706e+05 4.101175e+05 4.101175e+05 1.523147e+05 1.523147e+05 1.650556e+05 1.263927e+05 1.263927e+05 2.589468e+05 1.190578e+05 1.066325e+05 2.061582e+05 1.776463e+05 2.152083e+05 2.327353e+05 4.175358e+05 3.535372e+05 3.535372e+05 3.535372e+05 3.851819e+05 4.885818e+05 5.298435e+05 2.838935e+05 4.717312e+05 3.438458e+05 3.438458e+05 3.628754e+05 3.128849e+05 3.128849e+05 2.988667e+05 2.988667e+05 2.304055e+05 2.371852e+05 3.258629e+04 4.875151e+04 2.879643e+05 1.422261e+05 3.301590e+05 3.301590e+05 2.529653e+05 2.529653e+05 2.529653e+05 2.388601e+05 4.634172e+05 4.430204e+05 2.658198e+05 9.676786e+04 2.061405e+05 3.776271e+05 2.775408e+05 2.775408e+05 3.300873e+05 3.300873e+05 1.223569e+05 1.223569e+05 3.078430e+05 4.623208e+05 4.166219e+05 4.166219e+05 3.958763e+05 5.659151e+04 3.261069e+05 4.319248e+05 2.115453e+05 2.115453e+05 1.993148e+05 2.535247e+05 2.647345e+05 3.923017e+05 3.923017e+05 2.132653e+05 2.132653e+05 1.439077e+05 1.259064e+05 1.259064e+05 2.346104e+05 3.678484e+05 1.017689e+05 3.080150e+05 3.502734e+05 3.814987e+05 6.068222e+04 1.382175e+05 3.171649e+05 3.171649e+05 3.455056e+05 7.312253e+04 5.172554e+04 1.103953e+05 1.103953e+05 1.103953e+05 1.275149e+05 2.341137e+05 2.341137e+05 3.365137e+05 3.365137e+05 3.141944e+05 3.141944e+05 2.523317e+05 8.625457e+04 7.690507e+04 2.732770e+05 2.732770e+05 2.732770e+05 2.697040e+05 1.883790e+05 1.883790e+05 2.730260e+05 2.730260e+05 2.356013e+05 2.356013e+05 2.299342e+05 5.334943e+04 5.334943e+04 5.334943e+04 4.264513e+04 2.186249e+05 2.007910e+05 2.007910e+05 9.629305e+04 1.209846e+05 5.884594e+04 6.799198e+04 8.332635e+04 8.332635e+04 2.056057e+05 2.871195e+05 1.484862e+05 1.517351e+05 2.026050e+05 1.354113e+05 1.354113e+05 2.401039e+05 2.359592e+05 2.934146e+05 1.045789e+05 1.045789e+05 8.895331e+04 2.669093e+05 2.669093e+05 2.432697e+05 1.019160e+05 8.959863e+04 8.959863e+04 8.959863e+04 7.521033e+04 2.277239e+05 8.100866e+04 1.160128e+05 1.794323e+05 8.100866e+04 1.277706e+05 9.498709e+04 9.498709e+04 1.663103e+05 1.600824e+05 1.217893e+05 1.158336e+05 1.615572e+05 1.615572e+05 1.615572e+05 1.166373e+05 1.711702e+05 1.711702e+05 1.711702e+05 1.521569e+05 1.521569e+05 1.398612e+05 1.237544e+05 1.598293e+05 1.329217e+05 1.284566e+05 1.504653e+05 1.372837e+05 1.445786e+05 1.585616e+05 1.585616e+05 1.215927e+05 1.215927e+05 1.299180e+05 1.606871e+05 1.606871e+05 1.606871e+05 1.644522e+05 1.644522e+05 1.494790e+05 1.494790e+05 1.494790e+05 3.487926e+05 3.596549e+05 3.596549e+05 3.596549e+05 1.064438e+05 1.064438e+05 3.654583e+05 3.654583e+05 3.654583e+05 3.767253e+05 3.767253e+05 1.266351e+05 1.145936e+05 3.434785e+05 3.434785e+05 3.335210e+05 1.054864e+05 3.847371e+05 3.746624e+05 3.776939e+05 9.502723e+04 1.105741e+05 1.138730e+05 1.715413e+05 1.715413e+05 1.740071e+05 6.406082e+05 2.546821e+05 2.546821e+05 2.546821e+05 2.353511e+05 3.102064e+05 3.102064e+05 3.102064e+05 3.169549e+05 3.103158e+05 3.103158e+05 4.831608e+05 2.703516e+05 2.703516e+05 2.703516e+05 2.685235e+05 1.923027e+05 5.889258e+05 5.889258e+05 5.889258e+05 3.068415e+05 4.558190e+05 4.558190e+05 4.089177e+05 4.089177e+05 4.089177e+05 2.897896e+05 2.897896e+05 2.897896e+05 3.228853e+05 2.927106e+05 2.927106e+05 2.975362e+05 3.440141e+05 2.517467e+05 2.964094e+05 2.836808e+05 2.796135e+05 2.433993e+05 2.294107e+05 2.641257e+05 2.185283e+05 2.024987e+05 2.162449e+05 2.162449e+05 1.973838e+05 1.973838e+05 1.973838e+05 1.702416e+05 5.270230e+05 3.320429e+05 3.320429e+05 2.927199e+05 2.749597e+05 2.464371e+05 2.464371e+05 4.522561e+05 4.522561e+05 3.920447e+05 3.920447e+05 3.417678e+05 3.214577e+05 2.629977e+05 2.286485e+05 1.988959e+05 1.988959e+05 1.728973e+05 1.818026e+05 5.309492e+05 5.309492e+05 2.410887e+05 2.033939e+05 2.033939e+05 2.181985e+05 2.049505e+05 1.948743e+05 1.841782e+05 1.841782e+05 1.841782e+05 1.861721e+05 1.861721e+05 1.808230e+05 1.787448e+05 1.787448e+05 1.787448e+05 2.005091e+05 2.005091e+05 1.144127e+05 1.747491e+05 1.747491e+05 1.768559e+05 1.736656e+05 1.736656e+05 1.190082e+05 1.310150e+05 1.194573e+05 1.722676e+05 1.722676e+05 1.722676e+05 1.691074e+05 1.812227e+05 1.462160e+05 1.707000e+05 3.778230e+05 1.638520e+05 1.578195e+05 1.670433e+05 1.664545e+05 3.889933e+05 4.293572e+05 4.293572e+05 4.633134e+05 4.633134e+05 5.026281e+05 5.026281e+05 5.026281e+05 5.382859e+05 5.613183e+05 5.613183e+05 5.613183e+05 6.988572e+05 1.710249e+05 1.748593e+05 1.748593e+05 1.748593e+05 1.787494e+05 1.843494e+05 1.878051e+05 2.381541e+05 1.827547e+05 1.887738e+05 1.914566e+05 1.899340e+05 1.972419e+05 1.945106e+05 1.873727e+05 1.758763e+05 1.824192e+05 1.769695e+05 1.769695e+05 1.727907e+05 1.727907e+05 1.827339e+05 1.766513e+05 1.710190e+05 1.693099e+05 4.004758e+05 4.225544e+05 5.357760e+05 7.974032e+05 9.867873e+05 9.879782e+05 9.894337e+05 9.898176e+05 9.890390e+05 9.870449e+05 9.861418e+05 9.832837e+05 9.821627e+05 9.810261e+05 9.009044e+05 1.469958e+05 1.469958e+05 1.593108e+05 1.593108e+05 1.622822e+05 1.667090e+05 1.696611e+05 1.696611e+05 1.696611e+05 1.699787e+05 1.655567e+05 1.655567e+05 1.584080e+05 1.584080e+05 1.584080e+05 1.964801e+05 1.964801e+05 1.964801e+05 1.998132e+05 1.998132e+05 1.558361e+05 1.558361e+05 1.558361e+05 1.599046e+05 1.469958e+05 1.464366e+05 1.464366e+05 1.692263e+05 1.786690e+05 1.786690e+05 8.786178e+05 8.786178e+05 8.786178e+05 9.304623e+05 9.304623e+05 1.578233e+05 1.640028e+05 1.640028e+05 9.120983e+05 9.120983e+05 8.830081e+05 4.645328e+05 4.645328e+05 4.645328e+05 3.858974e+05 3.858974e+05 3.858974e+05 3.661734e+05 3.661734e+05 1.730984e+05 6.547570e+05 6.547570e+05 6.547570e+05 6.399079e+05 9.388663e+05 9.388663e+05 9.388663e+05 9.193648e+05 8.849014e+05 7.668255e+05 7.668255e+05 7.668255e+05 9.347907e+05 9.086884e+05 9.086884e+05 9.086884e+05 9.224247e+05 4.276143e+05 4.542202e+05 4.276143e+05 4.276143e+05 2.068380e+05 2.068380e+05 1.440534e+05 4.999693e+05 4.999693e+05 9.552960e+05 9.810261e+05 9.285409e+05 9.285409e+05 9.224247e+05 7.936080e+05 7.438124e+05 8.811026e+05 8.502166e+05 8.130851e+05 8.130851e+05 8.277054e+05 7.749495e+05 8.143627e+05 8.277054e+05 7.802984e+05 7.097384e+05 7.097384e+05 7.297234e+05 7.297234e+05 7.605464e+05 7.094132e+05 6.849067e+05 6.641885e+05 6.641885e+05 6.393338e+05 6.768503e+05 6.094163e+05 5.587346e+05 5.587346e+05 4.542202e+05 3.958479e+05 3.958479e+05 3.737522e+05 3.737522e+05 3.587780e+05 3.454028e+05 3.024353e+05 1.854920e+05 1.440534e+05 1.440534e+05 1.774083e+05 1.774083e+05 1.774083e+05 1.760038e+05 1.633873e+05 1.804160e+05 1.804160e+05 1.804160e+05 1.796530e+05 1.913374e+05 1.913374e+05 1.913374e+05 1.897697e+05 1.870751e+05 2.257754e+05 2.257754e+05 2.257754e+05 2.313174e+05 2.723912e+05 2.723912e+05 2.723912e+05 2.698878e+05 2.609278e+05 2.342544e+05 2.342544e+05 2.286711e+05 3.233776e+05 3.233776e+05 3.233776e+05 3.303084e+05 3.303084e+05 3.073901e+05 3.073901e+05 3.073901e+05 2.014067e+05 2.014067e+05 3.047839e+05 3.047839e+05 3.047839e+05 2.985250e+05 2.985250e+05 4.141136e+05 4.141136e+05 4.141136e+05 3.612769e+05 3.612769e+05 3.612769e+05 2.776007e+05 2.776007e+05 2.776007e+05 1.888548e+05 3.571578e+05 3.494056e+05 3.010583e+05 2.928634e+05 4.092361e+05 3.699928e+05 3.699928e+05 2.659981e+05 2.659981e+05 2.983762e+05 2.856070e+05 3.393949e+05 3.393949e+05 3.393949e+05 4.189679e+05 4.999693e+05 3.027982e+05 2.507795e+05 2.507795e+05 2.507795e+05 3.346278e+05 2.857254e+05 2.531508e+05 2.362476e+05 2.201682e+05 2.658098e+05 2.202412e+05 2.155649e+05 2.127239e+05 2.127239e+05 1.699906e+05 4.923924e+05 4.923924e+05 3.547135e+05 2.452106e+05 2.452106e+05 3.309373e+05 5.880745e+05 2.283365e+05 2.283365e+05 2.051467e+05 2.051467e+05 2.051467e+05 3.137705e+05 3.740145e+05 2.073812e+05 2.247100e+05 2.063116e+05 1.965792e+05 1.961770e+05 1.961770e+05 1.961770e+05 1.874950e+05 1.874950e+05 1.913408e+05 1.902325e+05 1.902325e+05 1.834371e+05 1.822505e+05 1.730984e+05 1.789675e+05 1.789675e+05 1.683433e+05 1.715492e+05 3.679625e+05 4.766807e+05 4.766807e+05 5.519602e+05 5.519602e+05 4.261396e+05 1.641218e+05 2.548352e+05 3.472462e+05 3.758170e+05 3.830454e+05 4.083233e+05 4.083233e+05 4.412342e+05 4.412342e+05 4.412342e+05 4.729204e+05 5.010381e+05 5.257517e+05 5.636928e+05 5.636928e+05 5.667620e+05 7.208594e+05 2.071037e+05 2.194426e+05 4.001123e+05 5.890059e+05 2.265030e+05 2.352310e+05 2.040582e+05 1.963747e+05 2.098288e+05 1.978334e+05 1.841979e+05 2.181364e+05 1.858076e+05 1.858076e+05 1.822614e+05 1.816242e+05 1.740182e+05 1.737641e+05 1.737641e+05 1.725532e+05 1.760907e+05 1.767851e+05 3.883610e+05 4.353952e+05 5.040935e+05 6.210724e+05 4.917179e+05 5.282063e+05 4.325123e+05 5.897419e+05 5.212815e+05 1.714486e+05 1.593108e+05 9.867873e+05 9.869625e+05 9.882156e+05 9.871179e+05 9.866887e+05 9.874315e+05 9.870248e+05 9.845808e+05 9.826083e+05 9.799746e+05 9.759779e+05 9.712677e+05 9.662276e+05 9.586322e+05 9.555884e+05 9.489682e+05 9.414906e+05 9.372044e+05 9.343719e+05 9.271406e+05 9.229544e+05 9.155525e+05 9.075272e+05 9.033710e+05 8.942530e+05 8.944359e+05 8.806160e+05 8.776942e+05 8.699048e+05 8.658236e+05 8.633742e+05 8.571404e+05 8.526768e+05 8.462517e+05 8.391348e+05 8.282531e+05 8.233464e+05 8.136113e+05 8.001873e+05 7.934294e+05 7.865000e+05 7.774256e+05 7.669111e+05 7.557537e+05 7.489175e+05 7.410254e+05 7.279687e+05 7.145334e+05 7.057217e+05 6.949431e+05 6.813010e+05 6.703276e+05 6.575868e+05 6.428565e+05 6.306935e+05 6.188864e+05 6.053554e+05 5.953886e+05 5.823638e+05 5.726378e+05 5.613616e+05 5.519588e+05 5.383798e+05 5.255333e+05 5.094555e+05 5.015350e+05 4.872998e+05 4.771085e+05 4.663408e+05 4.539805e+05 4.417565e+05 4.312697e+05 4.200208e+05 4.095380e+05 3.980641e+05 3.875071e+05 3.760110e+05 3.634734e+05 3.509100e+05 3.393109e+05 3.292493e+05 3.184822e+05 3.062515e+05 2.965702e+05 2.863498e+05 2.758438e+05 2.647527e+05 2.542955e+05 2.440762e+05 2.340105e+05 2.233344e+05 2.124889e+05 2.034727e+05 1.921079e+05 1.828966e+05 1.736306e+05 1.628072e+05 1.538951e+05 1.453353e+05 1.366457e+05 1.278129e+05 1.192499e+05 1.112817e+05 1.023169e+05 9.514582e+04 8.614398e+04 7.869324e+04 7.184770e+04 6.467368e+04 5.872882e+04 5.302523e+04 4.604342e+04 4.023799e+04 3.466266e+04 2.884181e+04 2.499864e+04 1.902384e+04 1.371408e+04 9.940818e+03 6.130575e+03 1.868404e+03 -3.812194e+03 -7.895134e+03 -7.895134e+03 1.218124e+05 1.218124e+05 1.558598e+05 1.587513e+05 1.617835e+05 1.664545e+05 1.702416e+05 1.702416e+05 1.707958e+05 1.725532e+05 1.740182e+05 1.740182e+05 1.785962e+05 1.785962e+05 1.841979e+05 1.870751e+05 1.882007e+05 1.921537e+05 1.963747e+05 2.071037e+05 2.071037e+05 2.194426e+05 2.194426e+05 2.265030e+05 2.416010e+05 2.452106e+05 2.548352e+05 2.596601e+05 2.735378e+05 2.833788e+05 2.928634e+05 3.084610e+05 3.132114e+05 3.303084e+05 3.481689e+05 3.625547e+05 3.758170e+05 3.758170e+05 3.892882e+05 4.177177e+05 4.177177e+05 4.510486e+05 4.630742e+05 4.630742e+05 4.923924e+05 5.257517e+05 5.257517e+05 5.636928e+05 5.890059e+05 6.346874e+05 6.346874e+05 6.697257e+05 7.438124e+05 7.936080e+05 8.852344e+05 9.212175e+05 1.199123e+05 2.164276e+05 2.164276e+05 2.164276e+05 2.220667e+05 1.850566e+05 1.850566e+05 1.850566e+05 1.925097e+05 1.925097e+05 2.312978e+05 2.312978e+05 2.312978e+05 2.333747e+05 2.296492e+05 1.064438e+05 1.969854e+05 1.969854e+05 1.911188e+05 2.184418e+05 2.184418e+05 2.184418e+05 2.140554e+05 2.103011e+05 4.591161e+05 4.591161e+05 4.591161e+05 4.445002e+05 1.428125e+05 1.428125e+05 1.428125e+05 1.392093e+05 1.353797e+05 1.353797e+05 2.100912e+05 2.100912e+05 1.849693e+05 1.810329e+05 1.199123e+05 1.199123e+05 1.620121e+05 1.620121e+05 1.620121e+05 1.594684e+05 1.538891e+05 1.538891e+05 1.579659e+05 1.979534e+05 1.979534e+05 1.979534e+05 1.985262e+05 1.914910e+05 2.077381e+05 2.071004e+05 1.572004e+05 1.572004e+05 1.572004e+05 1.485620e+05 7.902396e+04 5.884594e+04 4.399612e+04 5.884594e+04 3.288846e+05 3.288846e+05 3.288846e+05 3.926784e+05 3.926784e+05 3.926784e+05 3.766867e+05 1.358168e+04 5.974455e+03 1.358168e+04 1.358168e+04 3.250843e+05 3.250843e+05 3.250843e+05 3.274337e+05 5.209552e+05 5.209552e+05 5.209552e+05 5.051546e+05 6.214412e+05 6.214412e+05 6.214412e+05 5.870100e+05 5.870100e+05 4.607443e+04 4.607443e+04 4.607443e+04 4.242966e+04 1.003190e+05 1.003190e+05 1.003190e+05 9.193809e+04 9.193809e+04 7.142175e+05 7.142175e+05 7.142175e+05 7.329584e+05 2.516558e+05 2.516558e+05 2.516558e+05 2.487606e+05 2.487606e+05 -1.373897e+04 -1.017035e+04 7.197425e+05 7.197425e+05 7.197425e+05 6.981634e+05 7.835594e+05 7.835594e+05 7.835594e+05 8.163685e+05 8.163685e+05 3.445548e+05 3.445548e+05 3.445548e+05 3.359531e+05 7.674676e+05 7.674676e+05 7.674676e+05 7.414318e+05 3.466266e+04 5.046665e+05 5.046665e+05 5.046665e+05 3.941864e+05 3.941864e+05 3.941864e+05 3.936304e+05 2.920300e+05 2.920300e+05 2.920300e+05 2.947186e+05 1.538951e+05 1.167381e+05 1.167381e+05 1.167381e+05 1.133216e+05 2.261578e+05 2.261578e+05 2.261578e+05 2.229915e+05 2.229915e+05 -1.017035e+04 -1.017035e+04 -1.373897e+04 5.967163e+05 5.967163e+05 5.967163e+05 6.440514e+05 6.440514e+05 2.455814e+05 2.510929e+05 2.510929e+05 4.775787e+05 4.775787e+05 4.775787e+05 5.118223e+05 5.118223e+05 4.339120e+05 4.339120e+05 4.339120e+05 4.439409e+05 4.286846e+04 3.465517e+04 4.286846e+04 4.286846e+04 5.172554e+04 1.911717e+05 1.911717e+05 1.911717e+05 1.992307e+05 2.101782e+05 2.218628e+05 2.218628e+05 1.378954e+05 1.378954e+05 1.221955e+05 1.221955e+05 2.372634e+05 2.372634e+05 2.372634e+05 2.529936e+05 2.529936e+05 1.288681e+05 1.288681e+05 1.288681e+05 1.284038e+05 1.218757e+05 1.746028e+05 1.585222e+05 3.103221e+05 3.103221e+05 3.103221e+05 3.043547e+05 3.650610e+05 3.650610e+05 3.650610e+05 3.566664e+05 2.508348e+05 2.508348e+05 2.508348e+05 4.148060e+05 4.148060e+05 4.148060e+05 1.411981e+05 1.411981e+05 1.411981e+05 4.818540e+05 4.818540e+05 4.818540e+05 5.030490e+04 5.030490e+04 5.030490e+04 4.923971e+04 4.251911e+04 1.490169e+05 1.490169e+05 1.490169e+05 6.312114e+04 6.312114e+04 6.433238e+04 2.922977e+05 2.922977e+05 2.922977e+05 3.017793e+05 1.767055e+05 1.767055e+05 1.767055e+05 1.757516e+05 1.335436e+05 1.335436e+05 6.296718e+05 6.296718e+05 6.296718e+05 6.042581e+05 1.304478e+04 1.304478e+04 1.304478e+04 1.380497e+04 7.964318e+04 7.964318e+04 7.964318e+04 8.140299e+04 5.883373e+05 5.883373e+05 5.883373e+05 3.692790e+05 3.692790e+05 3.692790e+05 3.690040e+05 1.986914e+05 1.986914e+05 1.986914e+05 1.991138e+05 1.975489e+05 1.975489e+05 1.975489e+05 1.923115e+05 2.710935e+05 2.710935e+05 2