<?xml version="1.0"?>
 <VTKFile type="UnstructuredGrid" version="1.0" byte_order="LittleEndian" header_type="UInt64">
  <UnstructuredGrid>
    <FieldData>
     <DataArray type="Float64" Name="TimeValue" NumberOfTuples="1" format="ascii">
1e-08
     </DataArray>
    </FieldData>
   <Piece NumberOfPoints="3632" NumberOfCells="3379">
    <PointData>
     <DataArray type="Float64" Name="pointP" format="ascii">
2.406478e+16 2.406478e+16 2.268972e+16 3.162842e+16 2.952056e+16 9.048721e+16 1.427806e+16 1.349031e+16 2.719459e+16 8.642952e+16 3.360533e+16 1.996767e+16 2.025580e+16 2.218128e+16 2.614411e+16 1.708301e+16 2.392840e+16 1.437364e+16 2.168306e+16 1.423704e+16 3.105254e+16 1.213085e+16 1.073737e+16 9.822664e+15 3.111296e+15 7.227319e+15 8.451680e+15 2.979464e+16 4.826769e+15 5.406576e+15 3.324028e+16 1.346347e+16 2.666270e+15 2.135560e+15 1.498576e+15 1.092026e+16 5.638560e+15 1.753423e+15 2.723870e+15 5.571635e+15 8.355354e+15 2.352947e+15 4.175654e+15 1.120996e+15 3.011604e+15 4.298715e+15 1.558519e+15 6.080900e+14 1.119636e+15 1.307889e+15 9.415138e+14 7.694820e+14 9.394912e+14 8.611770e+13 1.590027e+14 2.351060e+14 1.420921e+14 1.698667e+14 1.281941e+14 1.192194e+14 1.216862e+14 5.074290e+13 3.816737e+13 5.453515e+13 5.539056e+13 1.820422e+13 1.194665e+13 1.911656e+13 1.828350e+13 9.557983e+12 4.468536e+12 5.794139e+12 2.993930e+12 9.143834e+11 8.270313e+11 1.070435e+12 5.581171e+11 3.423046e+11 3.303243e+11 2.173234e+10 2.536157e+10 1.526224e+10 -1.652812e+11 -1.440953e+11 -6.974267e+09 -7.013558e+08 -3.862616e+08 -8.741750e+07 1.049943e+07 2.169472e+07 3.300971e+07 3.255858e+07 -9.710740e+07 -2.702685e+07 -2.978338e+06 -2.235312e+07 -4.302789e+07 -8.178784e+07 -2.210278e+08 -6.139546e+08 -6.872848e+08 3.918755e+08 4.738567e+09 2.730300e+11 2.985212e+12 2.738545e+13 5.668581e+14 4.609168e+15 1.744230e+15 -4.274872e+13 5.250167e+12 1.854823e+12 1.116737e+12 3.069242e+12 1.535921e+13 2.032942e+13 2.263436e+13 6.214512e+12 5.106076e+12 5.049059e+12 2.200044e+13 1.592347e+13 1.467068e+14 6.965826e+13 5.490243e+13 8.678135e+13 6.878428e+13 3.043560e+14 9.875040e+14 3.759791e+14 2.404701e+14 3.584712e+14 2.558392e+14 1.062210e+15 3.696376e+14 3.769352e+14 6.414848e+14 3.139125e+14 6.479999e+14 8.234051e+14 5.837117e+14 1.027948e+15 1.619978e+15 2.254469e+15 4.065002e+15 8.502718e+14 4.432777e+15 3.154782e+15 8.982879e+15 2.597314e+15 7.519308e+14 7.953418e+15 1.480811e+16 3.893566e+15 1.658485e+15 4.857949e+15 2.605142e+15 3.483033e+15 2.616393e+15 2.461751e+15 5.355204e+15 6.573345e+15 1.338343e+16 1.767922e+16 1.984787e+16 9.690487e+15 1.899487e+13 6.985341e+14 1.483923e+16 -1.298883e+15 6.137043e+15 1.477985e+16 1.539117e+16 3.285336e+16 1.025386e+16 1.957975e+16 9.389979e+15 5.813244e+15 2.683242e+16 3.388343e+16 1.652356e+15 7.228521e+06 7.228521e+06 7.228521e+06 -3.349444e+07 -3.349444e+07 -3.349444e+07 3.003412e+07 -6.504144e+08 6.756031e+07 3.266375e+08 1.204406e+08 1.204406e+08 1.204406e+08 9.128750e+07 -1.042086e+08 -1.042086e+08 -1.042086e+08 -1.102963e+08 -8.784264e+07 2.048200e+08 2.048200e+08 2.048200e+08 4.377848e+08 1.894911e+09 1.894911e+09 1.894911e+09 8.608021e+08 -4.719977e+08 -4.719977e+08 -4.719977e+08 -2.855899e+08 -2.126213e+08 2.649565e+07 -2.448520e+08 -2.448520e+08 -2.448520e+08 -5.189064e+08 -5.189064e+08 -3.119159e+10 -3.119159e+10 -3.119159e+10 -2.367019e+10 2.262785e+11 2.262785e+11 2.262785e+11 5.864470e+12 5.864470e+12 5.722428e+13 5.722428e+13 5.722428e+13 5.316354e+10 5.316354e+10 5.316354e+10 6.533066e+10 3.648597e+08 3.648597e+08 3.648597e+08 9.401365e+13 9.401365e+13 9.401365e+13 2.037708e+14 6.960457e+13 6.960457e+13 -1.109775e+13 -1.109775e+13 9.954057e+11 9.954057e+11 -6.110950e+10 1.536625e+12 1.536625e+12 1.536625e+12 1.019018e+13 1.019018e+13 -2.545768e+14 -2.545768e+14 -2.545768e+14 1.189977e+14 1.189977e+14 2.274022e+08 2.274022e+08 2.274022e+08 -6.739080e+08 -6.739080e+08 9.685577e+08 9.685577e+08 3.259660e+10 3.259660e+10 3.259660e+10 1.427875e+10 -3.376495e+10 -3.376495e+10 -3.376495e+10 -1.190859e+10 -7.276373e+09 -3.994039e+11 -3.994039e+11 -3.994039e+11 -4.420968e+10 -4.420968e+10 -2.555220e+10 1.092026e+16 -2.541251e+14 -2.541251e+14 3.285336e+16 -1.737717e+15 -1.737717e+15 -8.991492e+08 5.490243e+13 1.095897e+13 8.315151e+07 6.857705e+10 6.857705e+10 6.857705e+10 2.326420e+10 -1.361272e+08 -6.157172e+08 -6.157172e+08 -6.157172e+08 3.663135e+07 3.663135e+07 -7.542271e+07 -7.542271e+07 -7.542271e+07 -8.917372e+07 7.666830e+07 7.666830e+07 7.666830e+07 7.908015e+07 4.820126e+08 8.068465e+08 9.462430e+08 1.697694e+09 1.697694e+09 4.967797e+07 4.967797e+07 4.967797e+07 6.943522e+07 5.044266e+08 5.044266e+08 5.044266e+08 7.443725e+08 7.443725e+08 5.297387e+08 2.381872e+07 2.381872e+07 2.381872e+07 -1.126012e+07 -3.161554e+08 -3.161554e+08 -3.161554e+08 -2.963131e+08 -3.149657e+08 -1.300768e+08 -1.300768e+08 -1.300768e+08 -1.052651e+08 2.563570e+08 -3.086760e+09 -1.754517e+08 -1.754517e+08 -1.754517e+08 -2.204360e+08 -8.391436e+08 -8.391436e+08 -8.391436e+08 -6.424439e+07 -1.347473e+08 -1.347473e+08 -1.347473e+08 2.638256e+08 2.638256e+08 -2.390799e+12 -2.390799e+12 -2.390799e+12 -4.990384e+11 -1.200130e+12 -1.200130e+12 -1.200130e+12 -2.696972e+11 6.495187e+13 6.495187e+13 6.495187e+13 5.571627e+13 -3.106916e+11 -3.106916e+11 1.448612e+11 2.561224e+10 2.561224e+10 2.524487e+09 2.524487e+09 2.524487e+09 7.833583e+07 7.833583e+07 7.833583e+07 2.614103e+07 -1.117322e+15 -1.117322e+15 -1.117322e+15 -2.730647e+14 -2.730647e+14 -9.187192e+13 -9.187192e+13 -9.187192e+13 3.981721e+13 3.981721e+13 1.992127e+10 4.650235e+13 4.650235e+13 9.541682e+12 -1.230703e+15 -1.230703e+15 -1.230703e+15 -1.708011e+15 -2.315030e+14 -2.315030e+14 3.072059e+14 3.072059e+14 8.111592e+14 8.111592e+14 5.149156e+13 5.335794e+14 5.335794e+14 2.414369e+14 2.414369e+14 -4.194723e+14 -4.194723e+14 -3.788172e+13 -3.788172e+13 -3.788172e+13 1.794450e+13 -2.320225e+09 3.363510e+08 1.075073e+10 1.075073e+10 1.075073e+10 -1.683225e+09 1.625413e+11 1.625413e+11 1.625413e+11 1.333034e+11 1.333034e+11 -1.199849e+15 -1.199849e+15 -1.199849e+15 2.917570e+13 2.917570e+13 8.611024e+10 1.006996e+11 1.249890e+14 1.249890e+14 1.249890e+14 2.985954e+13 -1.676714e+11 -1.676714e+11 -1.676714e+11 -7.474439e+11 -7.474439e+11 -9.207318e+10 -2.067258e+11 1.424133e+08 1.424133e+08 1.424133e+08 8.894578e+07 8.894578e+07 -1.525031e+08 -4.030481e+08 -4.030481e+08 -6.931209e+09 -6.931209e+09 -6.931209e+09 -6.081698e+08 -6.081698e+08 2.493994e+08 2.493994e+08 2.493994e+08 -4.476180e+08 -4.476180e+08 1.364015e+10 1.364015e+10 2.093200e+10 2.093200e+10 2.284699e+07 2.284699e+07 3.208070e+07 -1.398318e+08 -1.398318e+08 -8.066087e+08 -8.066087e+08 -3.147912e+08 -3.147912e+08 -3.147912e+08 -2.932309e+08 -6.284038e+09 -6.284038e+09 -6.284038e+09 7.550859e+08 7.550859e+08 5.575267e+08 4.896920e+08 9.304170e+08 -1.255605e+07 -1.255605e+07 -1.255605e+07 3.870044e+07 3.870044e+07 1.032337e+08 1.032337e+08 7.448113e+07 -2.623752e+12 -2.623752e+12 -5.718046e+12 -2.094170e+12 1.597586e+08 1.597586e+08 1.597586e+08 5.220209e+07 5.220209e+07 5.220209e+07 1.523815e+08 1.523815e+08 1.523815e+08 -7.914676e+07 -8.099842e+07 4.928195e+07 2.841560e+08 2.841560e+08 2.841560e+08 1.934266e+08 4.461361e+07 4.461361e+07 4.461361e+07 -1.722101e+08 -1.722101e+08 -1.722101e+08 -1.442169e+08 2.325274e+08 2.325274e+08 2.325274e+08 -2.072798e+08 -2.072798e+08 -2.072798e+08 8.025370e+07 8.025370e+07 8.025370e+07 -5.162180e+08 -5.162180e+08 -1.600840e+08 -3.758352e+08 -3.038097e+08 -3.038097e+08 2.277711e+08 2.277711e+08 2.277711e+08 -2.487707e+09 -2.487707e+09 5.807429e+07 5.807429e+07 -6.710902e+09 -4.090058e+09 -3.086760e+09 -3.648013e+08 -3.648013e+08 -3.648013e+08 -3.850243e+06 -1.308006e+08 -1.308006e+08 -1.308006e+08 2.147446e+08 1.359265e+08 8.087178e+07 -2.159756e+08 -2.159756e+08 -2.159756e+08 1.496157e+12 1.496157e+12 1.496157e+12 -1.988453e+11 -9.511491e+11 4.472587e+08 4.472587e+08 4.472587e+08 -1.401141e+12 -1.401141e+12 -1.401141e+12 -1.369219e+12 -5.397816e+09 -5.397816e+09 -5.397816e+09 -2.849028e+09 8.224658e+12 8.224658e+12 8.224658e+12 -3.834536e+10 1.289774e+08 1.289774e+08 -6.530464e+07 -6.530464e+07 -6.530464e+07 -2.387084e+07 -4.041498e+06 -8.341760e+12 -8.341760e+12 -6.998337e+12 -4.316078e+14 1.582320e+14 -4.506171e+11 -4.506171e+11 -2.050960e+12 -2.050960e+12 -2.050960e+12 -5.867614e+10 -4.561195e+14 -4.561195e+14 -4.561195e+14 -1.553453e+14 5.453515e+13 -1.829915e+12 -1.829915e+12 3.137716e+13 3.137716e+13 3.137716e+13 3.728938e+14 6.352628e+14 -5.128760e+08 -5.128760e+08 -2.357206e+08 3.446011e+12 3.446011e+12 3.446011e+12 -9.876940e+13 -9.876940e+13 -5.194576e+14 -5.194576e+14 -5.194576e+14 4.397489e+15 1.870641e+15 1.870641e+15 1.870641e+15 -3.024788e+15 -3.024788e+15 3.806141e+15 -1.212295e+14 -1.212295e+14 6.975206e+05 1.781146e+14 1.781146e+14 1.128663e+14 -3.821547e+14 5.559543e+14 8.312411e+13 5.559543e+14 5.559543e+14 6.636164e+11 6.636164e+11 6.636164e+11 1.161979e+12 1.161979e+12 -6.566881e+10 -6.566881e+10 -5.752122e+10 -5.752122e+10 -4.348825e+10 -4.348825e+10 -4.348825e+10 -6.888627e+10 -6.888627e+10 6.251533e+07 6.251533e+07 6.251533e+07 6.899180e+07 6.899180e+07 1.852137e+09 1.852137e+09 1.852137e+09 -2.246589e+08 -2.246589e+08 8.646008e+07 8.646008e+07 8.646008e+07 4.136142e+07 3.578069e+07 3.578069e+07 3.578069e+07 -9.682425e+08 -9.682425e+08 2.863399e+08 2.863399e+08 2.863399e+08 -5.078041e+08 -5.078041e+08 -1.984870e+08 -1.984870e+08 -1.984870e+08 -1.567110e+08 -1.567110e+08 3.536886e+09 3.536886e+09 3.536886e+09 1.140896e+07 1.140896e+07 1.140896e+07 1.575922e+07 1.575922e+07 1.599319e+08 -1.404942e+12 -2.106812e+08 -2.106812e+08 -2.106812e+08 -2.020182e+08 5.134330e+07 5.134330e+07 4.675071e+07 -3.091309e+11 -3.091309e+11 4.481263e+10 4.481263e+10 2.118735e+11 -7.450203e+13 2.245722e+08 1.019413e+08 2.245722e+08 2.245722e+08 6.756031e+07 6.756031e+07 1.166437e+07 2.875662e+08 1.105202e+08 -1.439557e+09 -1.439557e+09 -1.439557e+09 4.125654e+08 -2.877916e+08 -1.639845e+08 -1.639845e+08 -1.639845e+08 -1.777214e+08 -4.174320e+08 -1.918174e+09 -6.246607e+12 -6.246607e+12 -6.246607e+12 -1.462690e+12 -5.948152e+12 -5.808621e+12 -1.503219e+13 9.179557e+06 9.179557e+06 3.963359e+05 -1.780509e+14 -2.087219e+14 -2.087219e+14 -1.724881e+14 5.517145e+13 5.227353e+13 -1.862428e+13 -1.726852e+13 1.564794e+14 1.564794e+14 1.564794e+14 -3.838673e+13 1.228725e+13 1.228725e+13 1.228725e+13 1.351457e+15 2.711305e+07 4.432777e+15 1.035246e+14 1.035246e+14 -6.231477e+11 -6.231477e+11 -6.231477e+11 8.642189e+12 4.892076e+15 4.892076e+15 -3.488719e+11 -3.488719e+11 -3.488719e+11 -3.161169e+10 1.362519e+14 1.362519e+14 7.164551e+15 2.042040e+11 2.042040e+11 2.042040e+11 -1.685078e+10 1.161271e+14 3.130318e+15 3.130318e+15 -3.340366e+14 2.605142e+15 2.653804e+07 2.653804e+07 -8.796766e+13 -8.796766e+13 -8.796766e+13 3.007796e+14 1.445864e+14 4.699843e+14 4.699843e+14 -3.117473e+11 3.072658e+14 3.072658e+14 8.240515e+14 -1.228458e+12 -1.228458e+12 -1.715460e+14 -6.852565e+12 5.049059e+12 -1.485979e+12 -1.485979e+12 1.320877e+16 1.320877e+16 2.862942e+12 1.852284e+15 1.852284e+15 -4.381584e+11 -4.381584e+11 -4.381584e+11 2.727685e+12 -3.766137e+13 -3.766137e+13 1.262009e+13 1.262009e+13 -2.353319e+15 -5.458695e+15 -6.478448e+10 2.077848e+11 4.065002e+15 1.405102e+13 1.405102e+13 -8.741750e+07 9.848475e+07 9.848475e+07 3.142618e+15 3.142618e+15 -1.621428e+16 -1.621428e+16 1.993662e+14 1.221628e+08 4.469580e+15 4.469580e+15 -1.412749e+14 1.325143e+16 1.325143e+16 8.355354e+15 -2.048062e+14 -1.771631e+12 -1.771631e+12 -1.771631e+12 6.114070e+14 6.114070e+14 6.114070e+14 -2.188280e+15 4.799784e+10 4.799784e+10 2.417891e+13 -8.515009e+15 -8.515009e+15 3.388030e+11 -1.360156e+13 -5.967623e+08 -5.967623e+08 -5.967623e+08 1.189309e+16 1.189309e+16 4.175654e+15 2.250196e+12 2.250196e+12 3.303243e+11 6.976220e+10 1.526224e+10 -3.222039e+09 -5.123098e+14 3.619980e+15 3.619980e+15 9.519639e+13 9.519639e+13 9.519639e+13 4.943610e+14 1.353614e+15 1.365158e+14 -5.344225e+11 -5.344225e+11 4.715774e+12 -3.637446e+10 -3.637446e+10 -8.868120e+15 -8.868120e+15 2.330064e+15 1.820422e+13 -1.504266e+12 -1.504266e+12 -4.696781e+08 4.893540e+15 4.893540e+15 1.655552e+15 1.655552e+15 -3.773831e+07 -3.773831e+07 -3.773831e+07 -4.176247e+14 -4.176247e+14 -4.176247e+14 4.630866e+06 4.630866e+06 -2.744578e+15 8.187256e+15 2.383667e+15 -4.033133e+14 -2.104162e+14 -1.419421e+15 -5.327475e+14 8.867906e+10 -1.323898e+10 -9.765841e+13 -9.765841e+13 -3.034682e+13 6.835204e+12 -9.342051e+11 -4.158946e+11 -6.656886e+07 -6.656886e+07 2.406478e+16 -5.678073e+15 7.763330e+14 7.763330e+14 7.763330e+14 7.802701e+15 -4.341063e+14 5.825232e+13 5.187623e+15 -1.391071e+14 2.197357e+10 2.197357e+10 1.300200e+10 -7.157396e+13 9.083825e+13 -5.186043e+13 1.036181e+13 1.045815e+12 1.045815e+12 1.045815e+12 -5.046625e+08 5.266333e+11 5.266333e+11 5.266333e+11 -4.974735e+14 -3.509836e+14 5.564485e+14 9.219206e+12 -5.822861e+12 -1.685794e+12 2.677243e+13 1.182566e+14 -9.091547e+13 -2.414499e+15 -2.414499e+15 2.571631e+11 -1.560201e+12 -6.183940e+13 1.566973e+13 2.903496e+13 5.072525e+11 5.072525e+11 1.962863e+11 1.962863e+11 -7.918563e+08 -7.918563e+08 -2.543582e+10 1.937119e+13 1.354837e+08 -4.460930e+14 -2.395849e+15 -5.114980e+13 -2.642227e+10 7.215517e+07 5.505016e+07 5.505016e+07 4.221715e+13 4.221715e+13 1.506642e+13 1.506642e+13 -7.767077e+12 8.973540e+10 1.984190e+12 1.984190e+12 -2.223536e+12 7.020865e+14 7.020865e+14 -2.706760e+11 -2.706760e+11 1.453203e+10 1.453203e+10 1.341733e+12 1.052769e+12 1.052769e+12 3.156716e+12 3.156716e+12 3.156716e+12 1.885416e+13 2.904262e+16 2.904262e+16 2.560051e+14 2.560051e+14 7.012793e+14 1.726197e+13 -3.466930e+12 -2.122629e+15 -1.396726e+14 -4.546673e+15 -4.546673e+15 -7.272482e+07 -7.272482e+07 -5.825334e+07 -8.582242e+12 -8.582242e+12 -2.240037e+12 -2.240037e+12 2.212829e+13 2.212829e+13 1.759885e+09 -5.750438e+13 2.542789e+11 2.542789e+11 3.087712e+11 1.568933e+08 1.779982e+08 -8.151678e+13 1.413694e+11 3.972152e+11 -2.432350e+14 -1.508424e+13 5.069868e+10 5.069868e+10 5.069868e+10 1.778243e+07 1.778243e+07 1.778243e+07 9.370846e+09 -2.951924e+14 -2.951924e+14 -2.951924e+14 3.517888e+16 -1.017982e+15 2.168677e+14 1.092704e+13 5.742873e+11 5.742873e+11 6.085979e+06 6.085979e+06 6.085979e+06 2.361386e+12 7.560770e+11 4.199023e+14 -1.038769e+15 -1.038769e+15 -3.327935e+14 2.275337e+07 -3.123825e+11 -3.123825e+11 1.558063e+13 -3.564844e+11 -3.564844e+11 8.896286e+12 -4.495864e+14 1.285576e+10 -5.254309e+10 -7.675998e+12 4.354291e+09 3.713927e+09 -5.950322e+15 -2.356908e+08 -2.356908e+08 -2.356908e+08 -1.329598e+11 -1.329598e+11 1.796197e+12 1.594520e+12 1.594520e+12 1.498619e+13 4.890444e+12 -1.651512e+11 -5.816103e+11 1.475329e+13 1.475329e+13 1.475329e+13 5.933853e+12 2.460366e+11 2.460366e+11 -8.024985e+11 3.189978e+13 3.189978e+13 3.431069e+09 3.431069e+09 3.431069e+09 2.899889e+10 -7.762623e+11 -2.200695e+12 -2.200695e+12 -2.200695e+12 8.002000e+12 9.517900e+14 1.011268e+12 1.011268e+12 -6.856852e+11 -6.856852e+11 5.548007e+11 6.076952e+12 6.076952e+12 -3.343112e+07 -4.081058e+07 -1.816141e+11 -1.816141e+11 1.446611e+14 -2.773546e+11 1.386251e+13 8.312411e+13 2.098813e+13 1.095944e+10 2.652458e+10 9.005251e+12 -2.251534e+11 -2.251534e+11 -8.374813e+10 -8.374813e+10 6.557879e+10 -3.275226e+08 -1.779829e+08 -8.521221e+10 -8.504026e+10 -3.077027e+10 1.757143e+11 -3.841732e+11 -3.841732e+11 3.573389e+13 3.573389e+13 3.573389e+13 8.924335e+12 3.290948e+13 3.290948e+13 5.574916e+14 8.288977e+09 3.841668e+09 4.330570e+11 1.249985e+11 5.217266e+11 5.217266e+11 5.217266e+11 -8.600407e+10 1.227736e+14 2.268972e+16 4.154253e+12 -6.915608e+11 -6.915608e+11 -1.205299e+16 -1.205299e+16 -1.205299e+16 8.222935e+14 -8.680563e+11 -8.680563e+11 4.295675e+12 4.295675e+12 1.115794e+12 2.557864e+11 -4.567920e+09 2.708321e+13 -1.901798e+10 -1.015489e+12 2.050999e+12 -1.610287e+12 6.857260e+07 -3.218763e+09 -3.218763e+09 -3.218763e+09 -1.079175e+10 -1.270720e+15 1.709171e+13 -3.745250e+11 -1.370190e+11 -3.647660e+11 -1.182303e+07 -1.082510e+07 -2.889211e+11 -2.889211e+11 -1.151711e+10 -2.095394e+10 -2.095394e+10 -4.235772e+09 -6.697194e+10 -6.697194e+10 4.760443e+13 -1.509532e+11 -1.509532e+11 9.835693e+12 9.700267e+11 1.255440e+12 1.255440e+12 1.648763e+10 -1.256953e+09 -1.256953e+09 4.013904e+09 7.556067e+13 -3.294891e+10 -7.641421e+09 -3.090914e+11 -3.090914e+11 5.194632e+07 -9.187525e+11 4.950551e+09 7.719032e+08 1.555696e+09 -1.391311e+11 -1.391311e+11 -4.345850e+09 -4.345850e+09 -4.345850e+09 1.154107e+09 3.770559e+08 -1.204280e+11 -6.017499e+10 -6.017499e+10 6.200042e+07 4.774485e+07 4.774485e+07 5.404742e+09 2.161190e+09 1.145243e+09 -3.324104e+10 -3.150026e+11 -3.150026e+11 -3.150026e+11 -9.084379e+11 3.002026e+13 1.521878e+10 8.726398e+09 3.799605e+10 -3.049178e+11 -3.049178e+11 -3.049178e+11 -8.790436e+07 -8.790436e+07 -8.790436e+07 -1.098471e+08 -6.003464e+07 -2.699077e+13 3.335340e+10 -3.806539e+09 2.352422e+09 2.352422e+09 -6.116664e+11 -1.492085e+10 -2.203747e+10 -2.203747e+10 -2.283893e+10 -1.547834e+10 -1.547834e+10 -2.278161e+09 -6.103347e+10 -6.103347e+10 -3.685797e+10 -2.727047e+09 -2.727047e+09 1.368845e+08 3.530106e+09 3.530106e+09 -2.682892e+10 -2.682892e+10 8.570365e+12 8.570365e+12 8.570365e+12 -5.476533e+11 -1.820652e+11 -1.820652e+11 -7.980349e+08 -7.980349e+08 -7.980349e+08 5.929212e+10 -5.052357e+10 1.761571e+08 -5.826690e+11 -5.826690e+11 -1.490999e+11 -2.243425e+11 -2.243425e+11 -2.243425e+11 2.829012e+07 2.829012e+07 -7.092819e+08 4.073555e+08 4.073555e+08 5.041542e+08 1.096469e+12 -5.570845e+09 -5.570845e+09 -5.585857e+11 -9.259088e+10 -5.272361e+11 -5.272361e+11 -5.272361e+11 1.016970e+12 4.527320e+08 4.527320e+08 -2.528765e+09 -2.528765e+09 -3.116098e+09 -3.116098e+09 -3.796160e+09 -3.796160e+09 8.528764e+10 8.528764e+10 2.797061e+12 4.533602e+08 2.534998e+08 -2.469290e+12 -2.353205e+10 -2.353205e+10 -2.353205e+10 -2.372115e+08 -3.610066e+09 -3.850624e+14 -1.319462e+09 -1.562373e+12 -1.270869e+11 -7.853368e+08 -7.853368e+08 -4.174174e+11 -2.197477e+11 -2.197477e+11 4.687264e+08 3.282503e+08 -1.575067e+11 -1.575067e+11 -2.666352e+10 -2.230071e+10 -2.230071e+10 1.259357e+08 5.130987e+07 5.098270e+11 1.964274e+08 -1.171055e+12 -6.409339e+10 -6.409339e+10 -8.303697e+11 -4.990053e+08 -5.764696e+09 -1.244824e+11 -9.960229e+11 -9.136985e+09 -9.136985e+09 -7.238507e+09 -7.238507e+09 5.887496e+07 2.722489e+12 1.490270e+10 1.490270e+10 -7.217251e+10 3.747743e+08 -3.572115e+08 -5.656481e+07 -5.656481e+07 -5.656481e+07 8.502984e+07 8.502984e+07 -4.794418e+09 -5.862946e+10 -2.062261e+11 -1.194318e+09 -1.194318e+09 1.278240e+08 1.278240e+08 1.052117e+08 1.265263e+08 1.265263e+08 -1.019505e+11 -1.019505e+11 -1.019505e+11 -1.167943e+10 -1.167943e+10 3.276654e+08 3.276654e+08 3.849506e+08 -1.111031e+08 3.695063e+08 3.695063e+08 3.695063e+08 -2.716381e+09 -9.741772e+08 2.833463e+08 2.833463e+08 -2.976719e+11 -2.260273e+10 -4.090058e+09 -1.420976e+10 -9.087218e+09 1.463732e+08 7.289809e+07 -9.259088e+10 -5.843766e+08 -5.843766e+08 1.503386e+09 1.503386e+09 1.687271e+09 -9.113178e+09 -6.685952e+09 -1.947891e+10 -3.091339e+09 -3.091339e+09 -1.197256e+09 -1.294563e+09 -6.411855e+09 -1.904566e+08 2.021657e+08 -4.436103e+08 -2.734979e+10 1.547072e+09 1.547072e+09 3.070514e+09 3.070514e+09 9.664075e+07 1.587614e+07 1.587614e+07 1.587614e+07 -1.456319e+11 -3.439155e+08 1.043486e+08 5.346751e+09 -7.962211e+08 2.331191e+08 -1.872768e+12 -3.836270e+08 -1.231417e+10 7.104042e+08 7.104042e+08 7.104042e+08 5.136279e+05 -1.795907e+08 -4.502638e+11 1.249091e+09 1.249091e+09 1.812928e+09 1.038322e+08 1.225898e+09 1.225898e+09 -5.640016e+08 2.980071e+08 2.125017e+08 -1.079559e+11 8.748403e+07 8.748403e+07 2.928550e+08 -1.114146e+09 5.744555e+09 5.744555e+09 -8.891425e+08 4.689657e+07 4.689657e+07 4.689657e+07 2.907094e+08 -1.742519e+08 2.739908e+07 6.267367e+06 -1.893604e+08 -1.893604e+08 -2.635327e+08 8.020435e+08 2.416910e+08 2.416910e+08 7.643982e+08 2.110301e+08 2.110301e+08 2.110301e+08 3.084185e+08 -5.491709e+09 -2.934982e+06 -4.832344e+08 5.087189e+08 -4.876875e+07 7.714336e+08 6.441276e+08 5.763847e+08 6.058600e+06 1.096445e+07 2.563570e+08 1.221281e+08 5.439030e+08 5.439030e+08 5.439030e+08 -1.660075e+09 -1.180428e+08 5.899470e+08 2.210084e+08 -1.660075e+09 -4.813139e+08 -9.064709e+08 -3.661816e+07 3.130986e+08 -2.324516e+08 1.144994e+06 -6.295920e+08 -6.295920e+08 -6.295920e+08 -1.838506e+08 4.749334e+08 4.749334e+08 2.767201e+09 2.767201e+09 1.997541e+08 1.896750e+09 1.085053e+09 -1.620116e+07 -1.620116e+07 -1.620116e+07 -9.582749e+07 1.790027e+09 1.790027e+09 -1.673151e+07 5.058121e+07 4.550069e+08 1.753525e+08 5.179450e+08 5.179450e+08 5.179450e+08 -2.217776e+08 -2.217776e+08 -2.217776e+08 -7.290760e+08 7.366907e+07 -4.972128e+07 -4.972128e+07 -6.111444e+08 -6.111444e+08 -6.111444e+08 -8.467614e+08 -8.800504e+07 -8.800504e+07 -8.800504e+07 5.254118e+07 5.254118e+07 5.254118e+07 4.438785e+08 -9.184248e+07 -4.108729e+08 2.541569e+07 2.541569e+07 2.541569e+07 -1.168625e+08 -7.370192e+07 -7.370192e+07 1.895826e+08 3.812815e+08 -6.202039e+09 -1.508417e+07 -3.116382e+07 -3.945097e+08 -4.220354e+08 8.410019e+07 4.094475e+07 -6.287489e+08 -6.287489e+08 -4.271090e+08 -7.571765e+07 2.035590e+08 -6.862917e+07 2.415123e+08 -1.615072e+06 1.276822e+08 -1.529980e+08 -1.529980e+08 4.890166e+08 -2.535159e+08 3.640162e+08 -1.970012e+07 9.237397e+07 4.535573e+09 4.402225e+08 4.402225e+08 -6.503408e+08 -6.503408e+08 2.820003e+08 2.820003e+08 2.820003e+08 4.014407e+08 4.014407e+08 6.652762e+08 -9.689273e+07 -7.204534e+08 -7.204534e+08 -6.551217e+06 1.185409e+08 2.910281e+08 1.664008e+08 1.664008e+08 4.166860e+08 6.992245e+08 2.181856e+08 2.181856e+08 1.012965e+09 9.816605e+08 -3.945097e+08 -3.945097e+08 -2.959282e+07 6.440837e+07 6.440837e+07 6.440837e+07 7.377300e+07 -8.088591e+08 -6.845325e+08 -5.122717e+09 -5.122717e+09 -5.122717e+09 2.054205e+07 1.093984e+08 3.206725e+08 1.545339e+07 1.849629e+08 -3.879772e+07 -3.879772e+07 -3.879772e+07 1.694943e+07 2.933387e+07 2.392372e+08 2.392372e+08 2.392372e+08 2.709827e+08 1.152132e+07 1.322037e+09 1.322037e+09 8.161844e+07 2.005753e+09 2.005753e+09 2.005753e+09 5.621325e+08 5.621325e+08 -1.969210e+07 -3.865137e+08 -3.865137e+08 3.595980e+07 -2.721475e+08 -2.721475e+08 -2.205577e+08 -6.681904e+08 -6.681904e+08 -6.681904e+08 -6.171890e+08 -6.171890e+08 -6.171890e+08 5.122510e+10 5.122510e+10 7.948842e+08 -5.905273e+07 -5.029886e+08 -5.029886e+08 -1.708437e+13 2.851712e+07 2.851712e+07 1.161605e+08 1.161605e+08 8.880883e+08 -8.381081e+07 4.462877e+07 4.462877e+07 -1.662221e+08 -1.662221e+08 -1.599432e+12 -1.599432e+12 3.049700e+13 5.149050e+07 5.149050e+07 2.541311e+08 2.541311e+08 -2.335937e+11 3.881601e+07 -7.692413e+07 -1.523072e+08 -1.523072e+08 2.193207e+08 3.459273e+08 -7.729346e+12 3.973018e+08 3.973018e+08 1.869419e+08 9.304170e+08 9.304170e+08 -8.005563e+08 -8.005563e+08 -2.621851e+08 5.045370e+08 5.045370e+08 5.045370e+08 -1.046386e+08 -1.046386e+08 7.329519e+08 1.756949e+08 1.756949e+08 -2.382227e+08 -2.382227e+08 -2.857733e+08 -3.421936e+12 5.134395e+08 -1.459157e+08 -2.683879e+07 6.597022e+08 6.597022e+08 -1.222428e+07 -1.222428e+07 -1.446478e+11 -1.446478e+11 -5.367492e+08 3.024960e+08 3.024960e+08 -1.003226e+08 5.747455e+08 5.747455e+08 7.985671e+07 7.985671e+07 4.123187e+08 1.352799e+08 1.352799e+08 -3.243961e+10 -3.243961e+10 -1.278662e+08 -1.278662e+08 9.835649e+10 2.459858e+10 2.459858e+10 -5.463913e+06 9.394239e+07 7.154222e+08 5.200725e+07 8.365893e+07 2.974009e+08 1.815376e+08 6.832700e+07 6.832700e+07 1.349832e+08 -1.014901e+08 -1.014901e+08 4.184508e+07 3.299977e+08 2.180546e+08 -2.843527e+08 -2.843527e+08 2.542439e+08 2.542439e+08 -2.574088e+06 3.190824e+08 -1.631919e+08 -1.631919e+08 -9.741580e+07 -9.741580e+07 7.069364e+06 -8.579348e+07 -8.579348e+07 -8.579348e+07 -9.533697e+07 -9.533697e+07 -1.549107e+08 9.260849e+07 1.455529e+08 1.455529e+08 -1.001624e+08 -1.001624e+08 1.093064e+08 -2.514998e+08 3.636391e+08 -1.116679e+07 4.617653e+07 -3.411053e+08 1.262194e+08 -2.399301e+07 1.506942e+08 2.602537e+10 3.767463e+10 3.723574e+07 -1.075502e+08 -1.789205e+07 1.567608e+08 1.019413e+08 -1.120169e+13 -1.120169e+13 -4.918722e+06 1.274706e+07 6.497655e+07 2.162184e+11 1.604050e+10 -6.493074e+07 -6.493074e+07 -1.074689e+08 -1.074689e+08 7.603462e+09 7.603462e+09 2.290631e+06 3.911007e+07 3.911007e+07 3.911007e+07 1.182164e+08 1.182164e+08 -3.412197e+07 -3.412197e+07 -3.412197e+07 -1.233095e+08 -1.233095e+08 -7.446083e+08 -5.368099e+08 -1.305798e+07 -7.446083e+08 -7.446083e+08 -4.713589e+08 -1.471559e+08 -5.828550e+07 -1.027969e+08 -7.251640e+07 -6.340778e+07 -1.070185e+08 -4.054639e+07 -1.090874e+08 -1.090874e+08 1.500204e+07 -5.609638e+07 -1.305798e+07 1.366846e+08 2.342266e+08 6.184224e+07 2.445634e+08 2.445634e+08 2.841229e+07 4.304009e+07 2.841229e+07 -1.443970e+09 3.054049e+07 3.480780e+07 -2.792520e+06 -1.126110e+07 -1.126110e+07 3.641172e+07 2.406478e+16 2.406478e+16 2.268972e+16 3.162842e+16 2.952056e+16 9.048721e+16 1.427806e+16 1.349031e+16 2.719459e+16 8.642952e+16 3.360533e+16 1.996767e+16 2.025580e+16 2.218128e+16 2.614411e+16 1.708301e+16 2.392840e+16 1.437364e+16 2.168306e+16 1.423704e+16 3.105254e+16 1.213085e+16 1.073737e+16 9.822664e+15 3.111296e+15 7.227319e+15 8.451680e+15 2.979464e+16 4.826769e+15 5.406576e+15 3.324028e+16 1.346347e+16 2.666270e+15 2.135560e+15 1.498576e+15 1.092026e+16 5.638560e+15 1.753423e+15 2.723870e+15 5.571635e+15 8.355354e+15 2.352947e+15 4.175654e+15 1.120996e+15 3.011604e+15 4.298715e+15 1.558519e+15 6.080900e+14 1.119636e+15 1.307889e+15 9.415138e+14 7.694820e+14 9.394912e+14 8.611770e+13 1.590027e+14 2.351060e+14 1.420921e+14 1.698667e+14 1.281941e+14 1.192194e+14 1.216862e+14 5.074290e+13 3.816737e+13 5.453515e+13 5.539056e+13 1.820422e+13 1.194665e+13 1.911656e+13 1.828350e+13 9.557983e+12 4.468536e+12 5.794139e+12 2.993930e+12 9.143834e+11 8.270313e+11 1.070435e+12 5.581171e+11 3.423046e+11 3.303243e+11 2.173234e+10 2.536157e+10 1.526224e+10 -1.652812e+11 -1.440953e+11 -6.974267e+09 -7.013558e+08 -3.862616e+08 -8.741750e+07 1.049943e+07 2.169472e+07 3.300971e+07 3.255858e+07 -9.710740e+07 -2.702685e+07 -2.978338e+06 -2.235312e+07 -4.302789e+07 -8.178784e+07 -2.210278e+08 -6.139546e+08 -6.872848e+08 3.918755e+08 4.738567e+09 2.730300e+11 2.985212e+12 2.738545e+13 5.668581e+14 4.609168e+15 1.744230e+15 -4.274872e+13 5.250167e+12 1.854823e+12 1.116737e+12 3.069242e+12 1.535921e+13 2.032942e+13 2.263436e+13 6.214512e+12 5.106076e+12 5.049059e+12 2.200044e+13 1.592347e+13 1.467068e+14 6.965826e+13 5.490243e+13 8.678135e+13 6.878428e+13 3.043560e+14 9.875040e+14 3.759791e+14 2.404701e+14 3.584712e+14 2.558392e+14 1.062210e+15 3.696376e+14 3.769352e+14 6.414848e+14 3.139125e+14 6.479999e+14 8.234051e+14 5.837117e+14 1.027948e+15 1.619978e+15 2.254469e+15 4.065002e+15 8.502718e+14 4.432777e+15 3.154782e+15 8.982879e+15 2.597314e+15 7.519308e+14 7.953418e+15 1.480811e+16 3.893566e+15 1.658485e+15 4.857949e+15 2.605142e+15 3.483033e+15 2.616393e+15 2.461751e+15 5.355204e+15 6.573345e+15 1.338343e+16 1.767922e+16 1.984787e+16 9.690487e+15 1.899487e+13 6.985341e+14 1.483923e+16 -1.298883e+15 6.137043e+15 1.477985e+16 1.539117e+16 3.285336e+16 1.025386e+16 1.957975e+16 9.389979e+15 5.813244e+15 2.683242e+16 3.388343e+16 1.652356e+15 7.228521e+06 7.228521e+06 7.228521e+06 -3.349444e+07 -3.349444e+07 -3.349444e+07 3.003412e+07 -6.504144e+08 6.756031e+07 3.266375e+08 1.204406e+08 1.204406e+08 1.204406e+08 9.128750e+07 -1.042086e+08 -1.042086e+08 -1.042086e+08 -1.102963e+08 -8.784264e+07 2.048200e+08 2.048200e+08 2.048200e+08 4.377848e+08 1.894911e+09 1.894911e+09 1.894911e+09 8.608021e+08 -4.719977e+08 -4.719977e+08 -4.719977e+08 -2.855899e+08 -2.126213e+08 2.649565e+07 -2.448520e+08 -2.448520e+08 -2.448520e+08 -5.189064e+08 -5.189064e+08 -3.119159e+10 -3.119159e+10 -3.119159e+10 -2.367019e+10 2.262785e+11 2.262785e+11 2.262785e+11 5.864470e+12 5.864470e+12 5.722428e+13 5.722428e+13 5.722428e+13 5.316354e+10 5.316354e+10 5.316354e+10 6.533066e+10 3.648597e+08 3.648597e+08 3.648597e+08 9.401365e+13 9.401365e+13 9.401365e+13 2.037708e+14 6.960457e+13 6.960457e+13 -1.109775e+13 -1.109775e+13 9.954057e+11 9.954057e+11 -6.110950e+10 1.536625e+12 1.536625e+12 1.536625e+12 1.019018e+13 1.019018e+13 -2.545768e+14 -2.545768e+14 -2.545768e+14 1.189977e+14 1.189977e+14 2.274022e+08 2.274022e+08 2.274022e+08 -6.739080e+08 -6.739080e+08 9.685577e+08 9.685577e+08 3.259660e+10 3.259660e+10 3.259660e+10 1.427875e+10 -3.376495e+10 -3.376495e+10 -3.376495e+10 -1.190859e+10 -7.276373e+09 -3.994039e+11 -3.994039e+11 -3.994039e+11 -4.420968e+10 -4.420968e+10 -2.555220e+10 1.092026e+16 -2.541251e+14 -2.541251e+14 3.285336e+16 -1.737717e+15 -1.737717e+15 -8.991492e+08 5.490243e+13 1.095897e+13 8.315151e+07 6.857705e+10 6.857705e+10 6.857705e+10 2.326420e+10 -1.361272e+08 -6.157172e+08 -6.157172e+08 -6.157172e+08 3.663135e+07 3.663135e+07 -7.542271e+07 -7.542271e+07 -7.542271e+07 -8.917372e+07 7.666830e+07 7.666830e+07 7.666830e+07 7.908015e+07 4.820126e+08 8.068465e+08 9.462430e+08 1.697694e+09 1.697694e+09 4.967797e+07 4.967797e+07 4.967797e+07 6.943522e+07 5.044266e+08 5.044266e+08 5.044266e+08 7.443725e+08 7.443725e+08 5.297387e+08 2.381872e+07 2.381872e+07 2.381872e+07 -1.126012e+07 -3.161554e+08 -3.161554e+08 -3.161554e+08 -2.963131e+08 -3.149657e+08 -1.300768e+08 -1.300768e+08 -1.300768e+08 -1.052651e+08 2.563570e+08 -3.086760e+09 -1.754517e+08 -1.754517e+08 -1.754517e+08 -2.204360e+08 -8.391436e+08 -8.391436e+08 -8.391436e+08 -6.424439e+07 -1.347473e+08 -1.347473e+08 -1.347473e+08 2.638256e+08 2.638256e+08 -2.390799e+12 -2.390799e+12 -2.390799e+12 -4.990384e+11 -1.200130e+12 -1.200130e+12 -1.200130e+12 -2.696972e+11 6.495187e+13 6.495187e+13 6.495187e+13 5.571627e+13 -3.106916e+11 -3.106916e+11 1.448612e+11 2.561224e+10 2.561224e+10 2.524487e+09 2.524487e+09 2.524487e+09 7.833583e+07 7.833583e+07 7.833583e+07 2.614103e+07 -1.117322e+15 -1.117322e+15 -1.117322e+15 -2.730647e+14 -2.730647e+14 -9.187192e+13 -9.187192e+13 -9.187192e+13 3.981721e+13 3.981721e+13 1.992127e+10 4.650235e+13 4.650235e+13 9