<?xml version="1.0"?>
 <VTKFile type="UnstructuredGrid" version="1.0" byte_order="LittleEndian" header_type="UInt64">
  <UnstructuredGrid>
    <FieldData>
     <DataArray type="Float64" Name="TimeValue" NumberOfTuples="1" format="ascii">
1e-08
     </DataArray>
    </FieldData>
   <Piece NumberOfPoints="3468" NumberOfCells="3392">
    <PointData>
     <DataArray type="Float64" Name="pointP" format="ascii">
-8.392013e+07 -7.659558e+07 -5.956461e+07 -6.898983e+07 -6.569067e+07 -4.568766e+07 -4.568766e+07 -7.521601e+07 -8.878611e+07 -6.593677e+07 -6.593677e+07 -5.969441e+07 -5.532282e+07 -5.686756e+07 -5.686756e+07 -6.335330e+07 -6.487518e+07 -5.184171e+07 -4.840715e+07 -5.034380e+07 -5.491563e+07 -5.209973e+07 -4.526129e+07 -4.526129e+07 -4.054272e+07 -3.566668e+07 -3.592478e+07 -3.871633e+07 -3.755656e+07 -3.686149e+07 -4.118800e+07 -3.889762e+07 -3.222332e+07 -3.200688e+07 -3.232064e+07 -2.690367e+07 -2.927574e+07 -2.746897e+07 -2.701640e+07 -2.411069e+07 -2.409917e+07 -2.529579e+07 -2.697353e+07 -2.471837e+07 -2.370237e+07 -2.354882e+07 -2.123432e+07 -2.066411e+07 -2.040082e+07 -2.025671e+07 -1.980065e+07 -1.902901e+07 -1.825520e+07 -1.825520e+07 -1.752016e+07 -1.752016e+07 -1.588399e+07 -1.502473e+07 -1.480031e+07 -1.378789e+07 -1.282790e+07 -1.284942e+07 -1.284942e+07 -1.274348e+07 -1.230303e+07 -1.185020e+07 -1.076025e+07 -1.054984e+07 -1.054984e+07 -9.940107e+06 -9.968140e+06 -9.459925e+06 -8.874429e+06 -8.185773e+06 -8.185773e+06 -7.920060e+06 -7.653767e+06 -7.582806e+06 -7.400422e+06 -6.957423e+06 -6.603618e+06 -6.603618e+06 -6.391148e+06 -6.093750e+06 -5.840789e+06 -5.840789e+06 -5.681227e+06 -5.312410e+06 -5.312410e+06 -4.976470e+06 -4.852007e+06 -4.852007e+06 -4.696406e+06 -4.588380e+06 -4.295342e+06 -4.246918e+06 -4.001686e+06 -3.881056e+06 -3.881056e+06 -3.684607e+06 -3.548257e+06 -3.548257e+06 -3.418087e+06 -3.211416e+06 -3.115730e+06 -2.817154e+06 -2.817154e+06 -2.610073e+06 -2.428796e+06 -2.428796e+06 -2.103004e+06 -2.043203e+06 -1.770927e+06 -1.611656e+06 -1.611656e+06 -1.231271e+06 -1.096345e+06 -1.030275e+06 -7.809878e+05 -6.821015e+05 -4.712781e+05 1.013250e+05 1.013250e+05 1.013250e+05 1.013250e+05 1.013250e+05 -1.861595e+06 -2.662086e+06 -3.643924e+06 -5.939223e+05 -9.124430e+07 -9.124430e+07 4.998442e+05 4.998442e+05 -1.074209e+07 -1.074209e+07 -1.074209e+07 -9.829825e+06 -9.829825e+06 -7.895141e+05 -7.895141e+05 -1.489800e+07 -1.489800e+07 -1.489800e+07 -1.433393e+07 -1.433393e+07 -2.316663e+08 -2.316663e+08 -2.316663e+08 -1.284246e+09 -1.168270e+08 -1.168270e+08 -4.960550e+06 -2.100799e+06 -2.100799e+06 -2.100799e+06 -1.929173e+06 -1.929173e+06 -2.242837e+06 -1.638691e+06 -1.638691e+06 -1.948558e+06 -7.201963e+05 -1.386448e+06 -1.461244e+06 -6.378909e+05 -6.378909e+05 -4.261297e+05 -4.261297e+05 -3.270861e+05 -3.365933e+05 3.483991e+07 3.483991e+07 3.483991e+07 -1.875292e+07 -1.875292e+07 -1.925665e+07 -4.452990e+07 -4.452990e+07 -4.452990e+07 -4.625040e+07 -4.614656e+07 -1.167333e+07 -2.569174e+07 -2.569174e+07 -2.868648e+07 -4.073275e+07 -4.073275e+07 -3.906450e+07 -2.269986e+07 -2.269986e+07 -2.269986e+07 -1.337513e+08 -1.337513e+08 -1.337513e+08 -5.912717e+07 -5.912717e+07 -5.912717e+07 -1.296381e+07 -1.296381e+07 -1.296381e+07 -3.630502e+07 -3.630502e+07 -3.630502e+07 -3.253365e+07 -3.253365e+07 -3.253365e+07 -3.252906e+07 -4.395541e+07 -4.395541e+07 -4.365620e+07 -4.365620e+07 -4.365620e+07 -1.105052e+08 -7.534537e+07 -4.234386e+07 -4.234386e+07 -1.585897e+07 -1.585897e+07 -1.585897e+07 -1.510797e+07 -1.510797e+07 -7.319372e+06 -7.728338e+06 -7.728338e+06 -2.585029e+07 -2.585029e+07 -2.585029e+07 -1.917946e+07 -1.917946e+07 -1.119952e+07 -1.119952e+07 -1.119952e+07 -2.591001e+07 -5.958545e+07 -6.785258e+07 -3.339938e+07 -3.339938e+07 -2.825847e+07 -2.825847e+07 -2.825847e+07 -3.603318e+07 -3.179182e+07 -3.179182e+07 -4.247838e+07 -4.247838e+07 -4.247838e+07 -1.286541e+07 -1.286541e+07 -1.286541e+07 -1.507612e+07 -1.507612e+07 -1.507612e+07 -1.846715e+08 -2.050388e+07 -7.779100e+07 -7.779100e+07 -7.779100e+07 -7.174839e+07 -2.421751e+07 -2.421751e+07 -6.932462e+07 -3.501695e+07 -3.501695e+07 -3.501695e+07 -8.012339e+07 -8.012339e+07 -3.402343e+07 -3.402343e+07 -4.523738e+07 -4.523738e+07 -4.523738e+07 -5.869676e+07 -5.869676e+07 -5.869676e+07 -6.299417e+07 -6.299417e+07 -6.299417e+07 -6.486182e+07 -6.486182e+07 -2.785711e+07 -2.785711e+07 -7.464113e+07 -7.464113e+07 -7.464113e+07 -3.126269e+07 -2.657228e+07 -2.657228e+07 -2.657228e+07 -6.617595e+07 -3.335888e+07 -3.335888e+07 -4.990174e+07 -4.990174e+07 -4.990174e+07 -2.108236e+07 -2.108236e+07 -2.108236e+07 -6.465305e+07 -5.923945e+07 -5.923945e+07 -5.923945e+07 -7.641674e+07 -7.641674e+07 -7.641674e+07 -6.756776e+07 -7.391067e+07 -4.466591e+07 -4.466591e+07 -4.466591e+07 -4.926061e+07 -4.926061e+07 -2.229023e+07 -2.229023e+07 -2.229023e+07 -8.144033e+07 -8.144033e+07 -8.144033e+07 -8.112893e+07 -8.026448e+07 -1.066393e+08 -1.066393e+08 -2.925894e+07 -2.925894e+07 -2.925894e+07 -8.091301e+07 -8.091301e+07 -4.865375e+07 -4.865375e+07 -1.497508e+08 -8.767984e+07 -8.767984e+07 -7.185170e+07 -7.185170e+07 -7.185170e+07 -3.119459e+07 -9.316276e+07 -5.684938e+07 -5.684938e+07 -3.210377e+07 -3.210377e+07 -3.748231e+07 -3.748231e+07 -3.748231e+07 -4.639364e+07 -4.639364e+07 -1.489615e+07 -1.489615e+07 -1.489615e+07 -2.112629e+07 -2.112629e+07 -2.112629e+07 -4.236390e+07 -6.706123e+07 -2.606798e+07 -2.606798e+07 -2.606798e+07 -3.595042e+07 -3.595042e+07 -3.595042e+07 -1.621302e+07 -6.637482e+07 -6.706123e+07 -4.120434e+07 -2.004038e+07 -2.004038e+07 -2.004038e+07 -5.040577e+07 -5.040577e+07 -1.742489e+07 -1.742489e+07 -1.742489e+07 -4.857675e+07 -4.857675e+07 -4.857675e+07 -4.645548e+07 -1.417290e+07 -1.417290e+07 -1.417290e+07 -4.277685e+07 -4.205718e+07 -4.205718e+07 -4.683593e+07 -2.749679e+07 -2.749679e+07 -5.089906e+07 -4.426185e+07 -4.426185e+07 -4.656532e+07 -4.656532e+07 -3.940407e+07 -4.831091e+07 -2.017715e+07 -2.017715e+07 -2.017715e+07 -4.293123e+07 -1.430514e+07 -1.430514e+07 -2.646345e+07 -2.296026e+07 -2.296026e+07 -2.838673e+07 -8.880822e+06 -8.880822e+06 -8.880822e+06 -1.546539e+07 -1.546539e+07 -2.956593e+07 -2.956593e+07 -2.790798e+07 -2.790798e+07 -4.694245e+07 -1.764023e+07 -1.764023e+07 -1.764023e+07 -2.734356e+07 -2.734356e+07 -2.734356e+07 -6.785258e+07 -1.747062e+07 -1.747062e+07 -2.695802e+07 -2.627033e+07 -2.273509e+07 -5.374511e+07 -4.263468e+07 -4.263468e+07 -1.311481e+07 -1.311481e+07 -1.311481e+07 -3.088803e+07 -7.144534e+06 -7.144534e+06 -7.144534e+06 -2.399620e+07 -2.399620e+07 -2.582761e+07 -3.324294e+07 -8.830792e+06 -8.830792e+06 -8.830792e+06 -1.225203e+07 -1.225203e+07 -1.225203e+07 -1.033744e+07 -1.033744e+07 -1.363868e+07 -1.363868e+07 -1.462991e+07 -1.462991e+07 -1.583001e+07 -2.349597e+07 -2.349597e+07 -2.817611e+07 -2.817611e+07 -2.103588e+07 -2.103588e+07 -3.292708e+07 -7.317959e+06 -6.662505e+06 -6.662505e+06 -6.662505e+06 -2.077850e+07 -1.195041e+07 -1.195041e+07 -1.941932e+07 -1.941932e+07 -1.910203e+07 -2.768890e+07 -2.128757e+07 -1.586638e+07 -1.586638e+07 -1.438374e+07 -1.438374e+07 -3.058257e+07 -6.135888e+06 -6.135888e+06 -6.135888e+06 -5.134629e+06 -5.134629e+06 -5.134629e+06 -1.827175e+07 -1.827175e+07 -1.827175e+07 -1.925584e+07 -1.925584e+07 -1.850503e+06 -1.850503e+06 -1.850503e+06 -6.322360e+06 -6.322360e+06 -6.322360e+06 -1.204663e+07 -5.697029e+06 -5.697029e+06 -5.697029e+06 -1.096295e+07 -1.096295e+07 -1.867594e+07 -6.245303e+06 -6.245303e+06 -3.733039e+06 -3.733039e+06 -3.733039e+06 -1.737146e+07 -1.737146e+07 -1.314307e+07 -1.314307e+07 -9.729163e+06 -9.729163e+06 -9.729163e+06 -4.172801e+06 -4.172801e+06 -4.172801e+06 -6.126399e+06 -4.135240e+06 -4.135240e+06 -4.135240e+06 -1.567574e+06 -1.567574e+06 -1.567574e+06 -7.713015e+06 -7.713015e+06 -7.713015e+06 -8.787960e+06 -8.844795e+06 -8.844795e+06 -8.798439e+06 -1.399059e+07 -1.399059e+07 -1.637513e+06 -8.329581e+06 -8.329581e+06 -8.329581e+06 -3.782369e+06 -3.782369e+06 -3.782369e+06 -7.353844e+06 -7.353844e+06 -7.353844e+06 -5.564972e+06 -5.564972e+06 -5.564972e+06 -6.431119e+06 -6.431119e+06 -4.222649e+06 -4.222649e+06 -1.019599e+08 -1.019599e+08 -4.773560e+06 -4.773560e+06 -4.773560e+06 -2.462215e+07 -2.462215e+07 -8.510277e+06 -8.510277e+06 -4.263642e+06 -4.043841e+06 -4.043841e+06 -7.590087e+06 -7.590087e+06 -6.038182e+06 -3.740455e+06 -3.740455e+06 -3.740455e+06 -5.533043e+06 -5.533043e+06 -4.660102e+06 -4.660102e+06 -6.705613e+06 4.819377e+08 4.819377e+08 4.819377e+08 9.287603e+07 9.287603e+07 9.287603e+07 -3.470755e+06 -3.470755e+06 -2.887894e+06 -2.887894e+06 -2.887894e+06 -4.008014e+06 -2.394805e+06 -2.394805e+06 -2.934549e+07 -4.839836e+08 -6.744723e+07 1.841492e+08 -5.009098e+07 -3.071988e+07 -2.656634e+08 -1.048019e+06 -1.048019e+06 -1.048019e+06 -5.162287e+06 -5.162287e+06 -7.032772e+06 -6.894289e+06 -8.189328e+05 1.675115e+07 2.483890e+08 -1.321118e+07 -7.382349e+03 -7.382349e+03 -3.365497e+06 -3.365497e+06 -3.365497e+06 -3.395177e+06 -5.472258e+06 -7.153691e+06 -7.153691e+06 -6.710725e+06 -6.710725e+06 -6.710725e+06 -6.695461e+06 -1.529281e+07 -1.661987e+07 -6.299006e+07 -5.046092e+07 -5.046092e+07 -8.142110e+07 -3.945767e+07 -3.945767e+07 -1.055955e+07 -9.237869e+06 -2.615944e+06 -2.615944e+06 -2.615944e+06 -1.865952e+06 -1.865952e+06 -6.245309e+07 -6.245309e+07 -5.122909e+07 -7.632114e+07 -7.401337e+07 -7.720629e+07 -7.258533e+07 -7.258533e+07 -7.258533e+07 -4.936023e+07 -6.217750e+07 -5.613121e+07 -3.484393e+07 -4.540355e+07 -5.499742e+07 -5.499742e+07 -5.499742e+07 -5.578377e+07 -5.578377e+07 -7.520179e+07 -6.592173e+07 -5.257694e+07 -8.552565e+07 -5.026426e+07 -8.269828e+07 -9.409885e+07 -9.409885e+07 -6.434552e+07 -6.547996e+07 -6.547996e+07 -5.702600e+07 -8.108589e+07 -6.154383e+07 -4.093526e+07 -4.495814e+07 -4.468902e+07 -6.258377e+07 -6.258377e+07 -6.258377e+07 -7.105911e+07 -7.105911e+07 -5.393183e+07 -5.006821e+07 -5.330388e+07 -6.500602e+07 -6.281132e+07 -7.236239e+07 -7.222496e+07 -2.731330e+07 -4.758929e+07 -6.915688e+07 -4.544924e+07 -5.792233e+07 -5.847177e+07 -3.712632e+07 -3.719889e+07 -2.998016e+07 -5.403716e+07 -7.275062e+07 -1.845018e+07 -1.845018e+07 -6.912133e+07 -3.127361e+07 -3.127361e+07 -5.402968e+07 -5.402968e+07 -3.070082e+07 -1.697287e+07 -2.013822e+07 -2.013822e+07 -2.013822e+07 -5.766645e+07 -5.950414e+07 -5.950414e+07 -1.765030e+07 -1.454030e+07 -5.123933e+07 -2.025540e+07 -2.088344e+07 -2.088344e+07 -3.102583e+07 -3.859987e+07 -3.606011e+07 -3.606011e+07 -2.386728e+07 -2.742294e+07 -2.846458e+07 -2.107795e+07 -2.138467e+07 -1.278772e+07 -1.278772e+07 -4.082596e+07 -5.461382e+07 -3.004818e+07 -3.004818e+07 -3.004818e+07 -2.494220e+07 -2.126234e+07 -4.314570e+07 -3.168216e+07 -1.553983e+07 -1.553983e+07 -1.553983e+07 -3.345441e+07 -3.345441e+07 -1.811002e+07 -2.519590e+07 -1.251202e+07 -2.823104e+07 -1.277288e+07 -1.092382e+07 -1.092382e+07 -1.489393e+07 -1.612868e+07 -2.336187e+07 -1.904627e+07 -1.881043e+07 -2.130404e+07 -1.178013e+07 -1.178013e+07 -1.178013e+07 -1.447428e+07 -2.883983e+07 -2.307024e+07 -1.159174e+07 -3.384770e+07 -2.746352e+07 -2.746352e+07 -1.030067e+07 -1.047889e+07 -5.232526e+06 -5.232526e+06 -2.615387e+07 -7.478503e+06 -7.478503e+06 -7.715265e+06 -1.102944e+07 -1.102944e+07 -7.918569e+06 -7.918569e+06 -2.027169e+07 -9.697520e+06 -7.479109e+06 -7.129964e+06 -7.129964e+06 -2.176243e+07 -1.339022e+07 -1.339022e+07 -1.048930e+07 -1.048930e+07 -1.048930e+07 -1.807913e+07 -1.807913e+07 -1.475614e+07 -8.256395e+06 -8.256395e+06 -5.486582e+06 -5.938688e+06 -7.546441e+06 -1.361114e+07 -9.411394e+06 -1.296354e+07 -1.236381e+07 -1.065727e+07 -1.098229e+07 -6.831139e+06 -4.603323e+06 -4.603323e+06 -4.603323e+06 -7.111706e+06 -6.367877e+06 -5.920163e+06 -5.920163e+06 -5.920163e+06 -8.355861e+06 -9.781404e+06 -9.781404e+06 -9.781404e+06 -4.843255e+06 -1.496974e+07 -4.495696e+06 -4.495696e+06 -6.636094e+06 -1.295684e+07 -1.831090e+07 -1.406686e+07 -9.683290e+06 -2.010232e+06 -2.010232e+06 -8.686014e+06 -1.205216e+07 -5.689677e+06 -1.442167e+07 -8.000263e+06 -8.000263e+06 -8.000263e+06 -4.984418e+06 -5.500792e+06 -5.500792e+06 -5.500792e+06 -4.079872e+06 -4.079872e+06 -4.818209e+06 -8.921295e+06 -3.117291e+06 -3.209608e+06 -6.220620e+06 -5.707769e+06 -5.707769e+06 -3.494351e+06 -3.494351e+06 -1.264038e+07 -5.252127e+06 -3.854168e+06 -3.854168e+06 -4.733793e+06 -4.733793e+06 -1.758756e+07 -6.091649e+06 -7.743130e+06 -2.754940e+06 -2.754940e+06 -3.006135e+06 -3.006135e+06 -3.006135e+06 -2.679114e+06 -3.386283e+06 -3.386283e+06 -6.571116e+06 -8.603384e+06 -8.157881e+06 -5.086971e+06 -5.003131e+06 -5.003131e+06 -2.815758e+06 -5.716938e+06 -4.261515e+06 -5.154506e+06 -4.845638e+06 -4.845638e+06 -5.545012e+06 -5.915449e+06 -4.035489e+06 -4.035489e+06 -3.264164e+06 -3.264164e+06 -4.666988e+06 -4.666988e+06 -8.098314e+05 -2.172005e+06 -1.025859e+06 -1.616704e+06 -8.827529e+06 -8.827529e+06 -3.915943e+06 -2.515006e+06 -2.515006e+06 -2.415252e+06 -2.415252e+06 -1.436493e+06 -1.436493e+06 -3.102213e+06 -7.974394e+06 -8.238109e+06 -4.149256e+06 -5.169560e+06 -2.473217e+06 -4.311201e+06 -4.450604e+06 -2.285982e+06 -2.285982e+06 -1.090659e+07 -3.633906e+06 -3.633906e+06 -3.633906e+06 -3.568816e+06 -1.105561e+06 -1.364888e+06 -5.313908e+06 -7.764900e+06 -4.702472e+06 -4.794518e+06 -2.838869e+06 -1.233955e+06 -6.144954e+06 -1.025659e+06 -2.111136e+06 -4.483585e+06 -2.614845e+06 -4.172740e+06 -1.839056e+06 -2.605289e+06 -2.938459e+06 -3.113684e+06 -2.861434e+06 -5.896523e+06 -4.936151e+06 -3.715437e+06 -4.300056e+06 -4.300056e+06 -3.110691e+06 -3.110691e+06 -3.566232e+06 -3.566232e+06 -3.945599e+06 -3.435547e+06 -2.699693e+06 1.013250e+05 1.013250e+05 1.013250e+05 1.013250e+05 -7.608382e+06 -1.087283e+06 2.298635e+07 -7.688151e+10 6.043892e+12 -5.455045e+11 6.024878e+12 1.300981e+11 1.300981e+11 1.300981e+11 2.574628e+11 2.601329e+11 2.495752e+10 7.063822e+09 -2.768511e+06 -2.768511e+06 -2.768511e+06 -2.843664e+06 -5.876671e+06 -5.876671e+06 -5.876671e+06 -5.792014e+06 -1.729071e+08 -1.729071e+08 -1.729071e+08 -5.540055e+06 -5.540055e+06 -1.816561e+06 -1.816561e+06 -1.816561e+06 -1.495896e+06 -1.495896e+06 8.086381e+11 -1.781428e+06 -1.781428e+06 -1.503671e+06 -2.109826e+06 -2.109826e+06 1.713224e+04 2.377132e+09 -1.132376e+06 -1.132376e+06 -1.132376e+06 -6.353212e+05 -6.353212e+05 -6.353212e+05 -5.364517e+05 -1.611656e+06 -1.444913e+06 -1.444913e+06 -1.444913e+06 5.126039e+06 8.801114e+06 5.126039e+06 5.126039e+06 -1.349585e+06 -1.200220e+06 6.967825e+08 6.198204e+09 6.967825e+08 6.967825e+08 -1.074181e+09 -1.210877e+08 -1.210877e+08 -1.210877e+08 -7.368418e+07 -3.722326e+11 -3.722326e+11 -7.608382e+06 -1.354591e+10 -1.547201e+06 -1.547201e+06 -1.026470e+06 1.329764e+11 1.329764e+11 1.873593e+07 -3.875855e+07 -3.875855e+07 -3.875855e+07 -3.686149e+07 -1.515876e+07 -1.515876e+07 -1.515876e+07 -1.441411e+07 -1.441411e+07 -2.619747e+07 -2.619747e+07 -2.619747e+07 -4.034476e+07 -4.034476e+07 -2.142152e+07 -2.142152e+07 -2.142152e+07 -2.336803e+07 -6.555370e+06 -6.555370e+06 -6.555370e+06 -6.436511e+06 -1.470959e+07 -1.470959e+07 -1.470959e+07 -1.430983e+07 -1.411887e+07 -1.419724e+07 -3.151499e+07 -3.151499e+07 -3.151499e+07 -3.264911e+07 -3.300967e+07 -2.066411e+07 -2.066411e+07 -1.882702e+07 -1.882702e+07 -1.882702e+07 -3.111581e+07 -3.111581e+07 -3.111581e+07 -4.169425e+07 -4.169425e+07 -4.169425e+07 -8.095905e+06 -8.095905e+06 3.225874e+06 3.225874e+06 -5.095685e+06 -5.095685e+06 -5.095685e+06 -5.334246e+06 -8.148051e+07 -8.148051e+07 -8.148051e+07 -1.154003e+07 -1.154003e+07 -1.154003e+07 -1.938713e+07 -1.938713e+07 -1.938713e+07 -1.904561e+07 -1.904561e+07 -1.904561e+07 -5.118088e+07 -5.118088e+07 -5.118088e+07 -5.264982e+07 -5.264982e+07 -9.282494e+07 -9.282494e+07 -6.816061e+07 -6.816061e+07 -6.816061e+07 -4.740375e+07 -4.740375e+07 -4.740375e+07 -2.697377e+07 -2.697377e+07 -2.697377e+07 -3.577007e+07 -3.128237e+07 -6.852248e+06 -6.852248e+06 -6.852248e+06 -1.440988e+07 -1.440988e+07 -1.440988e+07 -2.407729e+07 -2.407729e+07 1.700506e+06 1.700506e+06 2.045614e+10 -1.946532e+07 -1.946532e+07 -1.946532e+07 -1.215858e+07 -1.215858e+07 -1.215858e+07 -1.972836e+07 -2.765323e+07 -1.719064e+07 -1.719064e+07 -1.719064e+07 -7.687121e+06 -7.687121e+06 -7.687121e+06 -1.903721e+07 -5.083508e+07 -4.554627e+07 -4.554627e+07 -4.554627e+07 -7.561398e+07 -7.561398e+07 -7.561398e+07 -3.164315e+07 -3.164315e+07 -3.774111e+07 -3.774111e+07 -3.105043e+07 -1.624498e+07 -1.624498e+07 2.514910e+07 2.514910e+07 2.514910e+07 -2.423752e+06 -2.662295e+08 -2.662295e+08 -2.310124e+06 -2.310124e+06 -2.310124e+06 -7.186022e+07 -5.429736e+07 -5.429736e+07 -5.429736e+07 -6.643849e+07 -6.643849e+07 -6.249958e+07 -2.409917e+07 -2.409917e+07 -7.186991e+07 -7.186991e+07 -3.972526e+07 -3.972526e+07 -3.972526e+07 -7.069176e+07 -5.619357e+07 -5.619357e+07 -5.619357e+07 -5.610557e+07 -5.610557e+07 -5.610557e+07 -6.626931e+07 -6.626931e+07 -4.401350e+07 -4.401350e+07 -4.401350e+07 -4.493746e+07 -6.701479e+07 -6.701479e+07 -6.701479e+07 -4.317953e+07 -4.317953e+07 -4.317953e+07 -7.247129e+07 -7.247129e+07 -7.247129e+07 -7.516740e+07 -7.516740e+07 -7.288440e+07 -5.822965e+07 -5.822965e+07 -5.981253e+07 -5.981253e+07 -5.978001e+07 -5.978001e+07 -4.513875e+07 -7.288440e+07 -7.288440e+07 -2.794235e+07 -2.794235e+07 -2.794235e+07 -7.477587e+07 -6.027536e+07 -7.489119e+07 -4.769762e+07 -4.769762e+07 -2.650687e+07 -2.650687e+07 -2.650687e+07 -2.911669e+07 -3.212901e+07 -1.049218e+07 -1.049218e+07 -1.049218e+07 -7.740431e+07 -2.155685e+07 -2.155685e+07 -2.155685e+07 -3.597563e+07 -3.597563e+07 -3.597563e+07 -7.010408e+07 -9.676435e+06 -9.676435e+06 -9.676435e+06 -2.648173e+07 -3.313587e+07 -3.313587e+07 -3.313587e+07 -2.861301e+07 -5.299616e+07 -5.517325e+07 -8.606647e+06 -8.606647e+06 -8.606647e+06 -4.312576e+07 -4.312576e+07 -7.635598e+07 -7.635598e+07 -6.147655e+07 -5.662266e+07 -1.873882e+07 -4.626572e+07 -3.432443e+07 -3.432443e+07 -1.726856e+07 -1.726856e+07 -1.726856e+07 -7.781135e+06 -7.781135e+06 -7.781135e+06 -2.305649e+07 -2.305649e+07 -2.305649e+07 -8.613811e+06 -8.613811e+06 -3.865463e+07 -3.865463e+07 -3.096172e+07 -3.096172e+07 -2.727642e+07 -2.727642e+07 -2.727642e+07 -4.857578e+07 -4.857578e+07 -5.878621e+07 -5.878621e+07 -2.762510e+07 -2.762510e+07 -6.688244e+07 -6.688244e+07 -6.688244e+07 -4.298195e+07 -7.919838e+06 -7.919838e+06 -2.083809e+07 -2.375366e+07 -2.375366e+07 -2.375366e+07 -6.212189e+07 -3.648750e+07 -1.714134e+07 -1.714134e+07 -1.714134e+07 -1.566691e+07 -1.566691e+07 -2.515344e+07 -2.515344e+07 -2.515344e+07 -5.379719e+07 -1.302162e+07 -1.302162e+07 -1.302162e+07 -3.051861e+07 -2.275743e+07 -1.520336e+07 -1.142076e+07 -1.142076e+07 -1.024544e+07 -1.024544e+07 -2.237188e+07 -1.620218e+07 -1.620218e+07 -1.620218e+07 -1.991883e+07 -3.948822e+07 -3.948822e+07 -1.495112e+07 -1.495112e+07 -1.345987e+07 -1.345987e+07 -6.217717e+06 -6.217717e+06 -2.360968e+07 -3.128237e+07 -1.224652e+07 -1.224652e+07 -1.224652e+07 -3.218375e+07 -1.891290e+07 -5.147027e+06 -5.147027e+06 -5.147027e+06 -1.644194e+07 -2.310351e+07 -2.310351e+07 -2.494015e+07 -4.149682e+06 -4.149682e+06 -4.149682e+06 -1.451959e+07 -2.493541e+07 -2.494529e+07 -5.003272e+06 -5.003272e+06 -9.070468e+06 -9.070468e+06 -9.070468e+06 -8.037960e+06 -8.037960e+06 -8.037960e+06 -2.447462e+07 -1.803374e+07 -4.044390e+06 -4.044390e+06 -4.044390e+06 -5.354809e+06 -5.354809e+06 -5.354809e+06 -8.243054e+06 -4.467382e+06 -4.467382e+06 -4.467382e+06 -1.537127e+07 -4.016331e+06 -1.446902e+07 -7.959971e+06 -7.959971e+06 -1.652508e+07 -1.584513e+07 -1.502739e+07 -3.737687e+06 -3.737687e+06 -3.737687e+06 -5.351897e+06 -1.932734e+06 -1.932734e+06 -1.932734e+06 -7.080865e+06 -9.038120e+06 -9.038120e+06 -9.626179e+06 -9.612959e+06 -4.562347e+06 -4.562347e+06 -1.875164e+07 -1.875164e+07 -4.814498e+06 -9.343007e+06 -9.343007e+06 -1.822538e+07 1.270925e+07 1.270925e+07 -5.923685e+05 -5.661097e+06 -2.778361e+06 -2.778361e+06 -8.487792e+05 -4.307578e+06 -4.307578e+06 -7.763052e+06 -8.187109e+05 -5.369246e+06 -5.369246e+06 6.051312e+09 -4.383095e+06 -4.383095e+06 -4.383095e+06 2.922963e+08 -3.094276e+07 -3.094276e+07 -6.110621e+06 -6.110621e+06 -1.188762e+06 -3.772573e+06 -2.111157e+06 -2.111157e+06 -3.838282e+06 1.690954e+07 1.690954e+07 -7.507914e+06 -2.183241e+07 -1.444330e+07 -1.165773e+07 -1.165773e+07 6.168244e+06 -9.894547e+06 -1.212150e+07 -1.212150e+07 -7.186022e+07 -7.186022e+07 -9.060893e+06 -1.991143e+07 -4.847489e+06 -4.847489e+06 -8.033419e+06 -6.887555e+06 -1.399604e+07 -1.399604e+07 -2.937042e+07 -2.058830e+07 -5.184171e+07 -8.874429e+06 -2.817154e+06 -2.043203e+06 -2.043203e+06 -1.770927e+06 -6.569067e+07 -6.569067e+07 -4.568766e+07 -7.268180e+07 -7.268180e+07 -8.392013e+07 -8.589334e+07 -8.392013e+07 -6.080383e+07 -5.224796e+07 -6.939062e+07 -8.250759e+07 -8.250759e+07 -8.250759e+07 -6.593677e+07 -6.016056e+07 -6.016056e+07 -6.016056e+07 -5.969441e+07 -5.969441e+07 -7.913991e+07 -5.034380e+07 -5.034380e+07 -5.686756e+07 -6.335330e+07 -6.755999e+07 -6.755999e+07 -6.487518e+07 -3.889762e+07 -5.673319e+07 -5.539519e+07 -4.526129e+07 -8.120515e+07 -8.120515e+07 -5.394783e+07 -8.387022e+07 -5.519321e+07 -6.545030e+07 -8.042939e+07 -3.566668e+07 -3.566668e+07 -3.222332e+07 -4.054272e+07 -3.232995e+07 -4.948721e+07 -5.638230e+07 -6.493093e+07 -4.356100e+07 -4.174730e+07 -4.174730e+07 -4.174730e+07 -4.240376e+07 -5.325474e+07 -5.252546e+07 -6.156015e+07 -6.156015e+07 -5.606463e+07 -2.370237e+07 -2.370237e+07 -5.489666e+07 -6.050787e+07 -4.871276e+07 -3.929639e+07 -2.701640e+07 -2.701640e+07 -4.472478e+07 -4.472478e+07 -4.472478e+07 -3.358319e+07 -3.358319e+07 -4.688823e+07 -3.232064e+07 -4.324066e+07 -2.528477e+07 -2.528477e+07 -2.528477e+07 -5.410348e+07 -2.613832e+07 -2.613832e+07 -3.688694e+07 -4.254166e+07 -1.588399e+07 -1.588399e+07 -2.690367e+07 -2.927574e+07 -2.927574e+07 -1.752016e+07 -2.746897e+07 -5.644703e+07 -3.720745e+07 -2.524284e+07 -3.128776e+07 -3.128776e+07 -1.853162e+07 -1.853162e+07 -1.853162e+07 -4.086511e+07 -2.025671e+07 -2.123432e+07 -4.471645e+07 -4.359930e+07 -2.905496e+07 -2.956850e+07 -2.329033e+07 -2.144054e+07 -2.144054e+07 -3.668099e+07 -3.668099e+07 -4.078815e+07 -3.931747e+07 -3.889065e+07 -3.284659e+07 -2.833596e+07 -4.468473e+07 -3.779734e+07 -1.825520e+07 -2.054258e+07 -2.054258e+07 -2.054258e+07 -1.393287e+07 -3.958956e+07 -2.323296e+07 -2.323296e+07 -1.284942e+07 -1.932562e+07 -1.076025e+07 -1.076025e+07 -1.281934e+07 -1.802959e+07 -1.715899e+07 -1.715899e+07 -9.940107e+06 -1.230303e+07 -1.230303e+07 -1.631631e+07 -1.925021e+07 -1.274348e+07 -1.081164e+07 -2.214861e+07 -2.604978e+07 -2.418803e+07 -1.712684e+07 -2.536009e+07 -9.650981e+06 -1.109182e+07 -1.242762e+07 -1.149541e+07 -1.281493e+07 -1.993694e+07 -7.653767e+06 -7.653767e+06 -7.582806e+06 -7.557172e+06 -3.238468e+07 -1.045268e+07 -1.045268e+07 -7.335042e+06 -7.335042e+06 -7.231432e+06 -1.787359e+07 -5.868574e+06 -1.717415e+07 -1.033129e+07 -8.933431e+06 -1.742648e+07 -8.185773e+06 -2.196270e+07 -9.828806e+06 -9.828806e+06 -6.957423e+06 -1.302979e+07 -4.295342e+06 -4.295342e+06 -4.852007e+06 -6.678094e+06 -1.272152e+07 -2.542836e+07 -4.976470e+06 -1.418784e+07 -5.963173e+06 -5.963173e+06 -5.840789e+06 -6.093750e+06 -7.224643e+06 -5.312410e+06 -5.252636e+06 -1.129961e+07 -5.138571e+06 -8.072892e+06 -8.072892e+06 -8.972456e+06 -4.696406e+06 -4.588380e+06 -3.168417e+07 -3.881056e+06 -6.432088e+06 -3.548257e+06 -9.590711e+06 -2.717511e+06 -2.717511e+06 -5.681227e+06 -4.917115e+06 -1.083641e+07 -1.083641e+07 -3.023452e+06 -3.023452e+06 -3.023452e+06 -8.507438e+06 -4.285887e+06 -6.927285e+06 -2.086185e+07 -5.752467e+06 -4.001686e+06 -2.359847e+07 -3.684607e+06 -3.684607e+06 -4.590094e+06 -1.349000e+07 -4.338129e+06 -5.395031e+06 -4.043775e+06 -5.317360e+06 -4.042174e+06 -3.841706e+06 -3.841706e+06 -7.160704e+06 -7.217697e+06 -2.684711e+06 -4.958478e+06 -6.790050e+06 -6.790050e+06 -6.790050e+06 -5.651652e+06 -2.615977e+06 -3.488773e+06 -3.286238e+06 -3.286238e+06 -3.286238e+06 -2.428796e+06 -5.664299e+06 -5.664299e+06 -2.949013e+06 -2.790163e+06 -3.857434e+06 -3.211416e+06 -3.665006e+06 -2.027951e+06 -7.809878e+05 -2.564598e+06 -2.659580e+06 -6.695191e+06 -2.353535e+06 -1.831118e+06 -6.047191e+06 -4.327882e+06 -4.327882e+06 -3.542572e+06 -3.542572e+06 -3.304499e+06 -3.796701e+06 -2.835085e+06 -4.767294e+06 -3.878700e+06 -3.259226e+06 -3.152860e+06 -1.096345e+06 -1.325310e+07 -2.503588e+06 -3.001594e+06 -3.309381e+06 -3.267416e+06 -2.265119e+06 -3.867317e+06 -3.310545e+06 -3.488847e+06 -8.124907e+06 -1.819549e+06 -4.712781e+05 -3.272706e+06 -3.272706e+06 -2.366514e+06 -2.366514e+06 1.548227e+07 1.548227e+07 -1.746272e+06 -3.284483e+06 -7.033055e+06 -1.621254e+06 -2.364650e+08 -5.187554e+06 -6.208723e+06 -1.409376e+06 -3.068400e+08 2.298635e+07 9.353487e+09 4.914323e+06 -7.959672e+06 -5.133642e+05 -1.743404e+06 -8.392013e+07 -7.659558e+07 -5.956461e+07 -6.898983e+07 -6.569067e+07 -4.568766e+07 -4.568766e+07 -7.521601e+07 -8.878611e+07 -6.593677e+07 -6.593677e+07 -5.969441e+07 -5.532282e+07 -5.686756e+07 -5.686756e+07 -6.335330e+07 -6.487518e+07 -5.184171e+07 -4.840715e+07 -5.034380e+07 -5.491563e+07 -5.209973e+07 -4.526129e+07 -4.526129e+07 -4.054272e+07 -3.566668e+07 -3.592478e+07 -3.871633e+07 -3.755656e+07 -3.686149e+07 -4.118800e+07 -3.889762e+07 -3.222332e+07 -3.200688e+07 -3.232064e+07 -2.690367e+07 -2.927574e+07 -2.746897e+07 -2.701640e+07 -2.411069e+07 -2.409917e+07 -2.529579e+07 -2.697353e+07 -2.471837e+07 -2.370237e+07 -2.354882e+07 -2.123432e+07 -2.066411e+07 -2.040082e+07 -2.025671e+07 -1.980065e+07 -1.902901e+07 -1.825520e+07 -1.825520e+07 -1.752016e+07 -1.752016e+07 -1.588399e+07 -1.502473e+07 -1.480031e+07 -1.378789e+07 -1.282790e+07 -1.284942e+07 -1.284942e+07 -1.274348e+07 -1.230303e+07 -1.185020e+07 -1.076025e+07 -1.054984e+07 -1.054984e+07 -9.940107e+06 -9.968140e+06 -9.459925e+06 -8.874429e+06 -8.185773e+06 -8.185773e+06 -7.920060e+06 -7.653767e+06 -7.582806e+06 -7.400422e+06 -6.957423e+06 -6.603618e+06 -6.603618e+06 -6.391148e+06 -6.093750e+06 -5.840789e+06 -5.840789e+06 -5.681227e+06 -5.312410e+06 -5.312410e+06 -4.976470e+06 -4.852007e+06 -4.852007e+06 -4.696406e+06 -4.588380e+06 -4.295342e+06 -4.246918e+06 -4.001686e+06 -3.881056e+06 -3.881056e+06 -3.684607e+06 -3.548257e+06 -3.548257e+06 -3.418087e+06 -3.211416e+06 -3.115730e+06 -2.817154e+06 -2.817154e+06 -2.610073e+06 -2.428796e+06 -2.428796e+06 -2.103004e+06 -2.043203e+06 -1.770927e+06 -1.611656e+06 -1.611656e+06 -1.231271e+06 -1.096345e+06 -1.030275e+06 -7.809878e+05 -6.821015e+05 -4.712781e+05 1.013250e+05 1.013250e+05 1.013250e+05 1.013250e+05 1.013250e+05 -7.201963e+05 -1.861595e+06 -3.435547e+06 -3.643924e+06 -1.168270e+08 4.998442e+05 4.998442e+05 4.998442e+05 -1.074209e+07 -1.074209e+07 -1.074209e+07 -9.829825e+06 -9.829825e+06 -7.895141e+05 -7.895141e+05 -1.489800e+07 -1.489800e+07 -1.489800e+07 -1.433393e+07 -1.433393e+07 -2.316663e+08 -2.316663e+08 -2.316663e+08 -1.284246e+09 -1.168270e+08 -1.168270e+08 -4.960550e+06 -2.100799e+06 -2.100799e+06 -2.100799e+06 -1.929173e+06 -1.929173e+06 -2.242837e+06 -1.638691e+06 -1.638691e+06 -1.948558e+06 -7.201963e+05 -1.386448e+06 -1.461244e+06 -6.378909e+05 -6.378909e+05 -4.261297e+05 -4.261297e+05 -3.270861e+05 -3.365933e+05 3.483991e+07 3.483991e+07 3.483991e+07 -1.875292e+07 -1.875292e+07 -1.925665e+07 -4.452990e+07 -4.452990e+07 -4.452990e+07 -4.625040e+07 -4.614656e+07 -1.167333e+07 -2.569174e+07 -2.569174e+07 -2.868648e+07 -4.073275e+07 -4.073275e+07 -3.906450e+07 -2.269986e+07 -2.269986e+07 -2.269986e+07 -1.337513e+08 -1.337513e+08 -1.337513e+08 -5.912717e+07 -5.912717e+07 -5.912717e+07 -1.296381e+07 -1.296381e+07 -1.296381e+07 -3.630502e+07 -3.630502e+07 -3.630502e+07 -3.253365e+07 -3.253365e+07 -3.253365e+07 -3.252906e+07 -4.395541e+07 -4.395541e+07 -4.365620e+07 -4.365620e+07 -4.365620e+07 -1.105052e+08 -7.534537e+07 -4.234386e+07 -4.234386e+07 -1.585897e+07 -1.585897e+07 -1.585897e+07 -1.510797e+07 -1.510797e+07 -7.319372e+06 -7.728338e+06 -7.728338e+06 -2.585029e+07 -2.585029e+07 -2.585029e+07 -1.917946e+07 -1.917946e+07 -1.119952e+07 -1.119952e+07 -1.119952e+07 -2.591001e+07 -5.958545e+07 -6.785258e+07 -3.339938e+07 -3.339938e+07 -2.825847e+07 -2.825847e+07 -2.825847e+07 -3.603318e+07 -3.179182e+07 -3.179182e+07 -4.247838e+07 -4.247838e+07 -4.247838e+07 -1.286541e+07 -1.286541e+07 -1.286541e+07 -1.507612e+07 -1.507612e+07 -1.507612e+07 -1.846715e+08 -2.050388e+07 -7.779100e+07 -7.779100e+07 -7.779100e+07 -7.174839e+07 -2.421751e+07 -2.421751e+07 -6.932462e+07 -3.501695e+07 -3.501695e+07 -3.501695e+07 -8.012339e+07 -8.012339e+07 -3.402343e+07 -3.402343e+07 -4.523738e+07 -4.523738e+07 -4.523738e+07 -5.869676e+07 -5.869676e+07 -5.869676e+07 -6.299417e+07 -6.299417e+07 -6.299417e+07 -6.486182e+07 -6.486182e+07 -2.785711e+07 -2.785711e+07 -7.464113e+07 -7.464113e+07 -7.464113e+07 -3.126269e+07 -2.657228e+07 -2.657228e+07 -2.657228e+07 -6.617595e+07 -3.335888e+07 -3.335888e+07 -4.990174e+07 -4.990174e+07 -4.990174e+07 -2.108236e+07 -2.108236e+07 -2.108236e+07 -6.465305e+07 -5.923945e+07 -5.923945e+07 -5.923945e+07 -7.641674e+07 -7.641674e+07 -7.641674e+07 -6.756776e+07 -7.391067e+07 -4.466591e+07 -4.466591e+07 -4.466591e+07 -4.926061e+07 -4.926061e+07 -2.229023e+07 -2.229023e+07 -2.229023e+07 -8.144033e+07 -8.144033e+07 -8.144033e+07 -8.112893e+07 -8.026448e+07 -1.066393e+08 -1.066393e+08 -2.925894e+07 -2.925894e+07 -2.925894e+07 -8.091301e+07 -8.091301e+07 -4.865375e+07 -4.865375e+07 -1.497508e+08 -8.767984e+07 -8.767984e+07 -7.185170e+07 -7.185170e+07 -7.185170e+07 -3.119459e+07 -9.316276e+07 -5.684938e+07 -5.684938e+07 -3.210377e+07 -3.210377e+07 -3.748231e+07 -3.748231e+07 -3.748231e+07 -4.639364e+07 -4.639364e+07 -1.489615e+07 -1.489615e+07 -1.489615e+07 -2.112629e+07 -2.112629e+07 -2.112629e+07 -4.236390e+07 -6.706123e+07 -2.606798e+07 -2.606798e+07 -2.606798e+07 -3.595042e+07 -3.595042e+07 -3.595042e+07 -1.621302e+07 -6.637482e+07 -6.706123e+07 -4.120434e+07 -2.004038e+07 -2.004038e+07 -2.004038e+07 -5.040577e+07 -5.040577e+07 -1.742489e+07 -1.742489e+07 -1.742489e+07 -4.857675e+07 -4.857675e+07 -4.857675e+07 -4.645548e+07 -1.417290e+07 -1.417290e+07 -1.417290e+07 -4.277685e+07 -4.205718e+07 -4.205718e+07 -4.683593e+07 -2.749679e+07 -2.749679e+07 -5