<?xml version="1.0"?>
 <VTKFile type="UnstructuredGrid" version="1.0" byte_order="LittleEndian" header_type="UInt64">
  <UnstructuredGrid>
    <FieldData>
     <DataArray type="Float64" Name="TimeValue" NumberOfTuples="1" format="ascii">
1e-08
     </DataArray>
    </FieldData>
   <Piece NumberOfPoints="3548" NumberOfCells="3379">
    <PointData>
     <DataArray type="Float64" Name="pointP" format="ascii">
4.092890e+11 4.397851e+12 7.924176e+12 2.345953e+12 8.353240e+12 1.228210e+13 1.596129e+13 2.469557e+12 1.678764e+13 5.453168e+13 1.030164e+14 2.292471e+14 2.332188e+14 1.171461e+14 1.303646e+14 6.364090e+13 1.341785e+14 2.939855e+14 2.749846e+14 2.239374e+14 2.812162e+14 5.631006e+14 4.600992e+14 4.295666e+14 7.903786e+14 9.616605e+14 1.232106e+15 6.903787e+14 5.484174e+14 3.586528e+15 2.318009e+15 2.758981e+15 3.095325e+15 2.538827e+15 2.275705e+15 2.576479e+15 4.936856e+15 4.336757e+15 2.356580e+15 1.283245e+16 7.987227e+15 5.190396e+15 9.966546e+15 6.963885e+15 4.498214e+15 1.409326e+16 8.841027e+15 1.436405e+16 1.262360e+16 5.072730e+15 9.840269e+15 6.488580e+15 7.125570e+15 1.140702e+16 1.209584e+16 8.711686e+15 1.190036e+16 1.225785e+16 2.526262e+16 1.023910e+16 2.320094e+16 2.622414e+16 2.533080e+16 8.576938e+15 3.973927e+15 1.075256e+16 1.000811e+16 3.179936e+16 2.979959e+16 3.037337e+16 8.460504e+15 1.772077e+16 3.088002e+16 1.745443e+16 2.150296e+16 1.141902e+16 -1.611528e+16 -8.559589e+16 6.313186e+14 -6.196933e+11 -1.764092e+11 -1.764092e+11 1.933233e+13 -1.498039e+13 3.772525e+13 3.299812e+12 3.299812e+12 1.106015e+11 3.146060e+09 1.405662e+09 3.187783e+08 -2.664776e+08 -4.956360e+08 -8.238752e+08 -1.084035e+09 6.206119e+08 -1.168737e+08 -1.433997e+07 5.810229e+08 1.878045e+08 -2.131258e+08 -3.242191e+08 -3.242191e+08 -4.201083e+08 -3.313487e+08 -2.715882e+08 -3.151685e+07 -1.176647e+08 3.305218e+06 -2.573048e+07 9.389629e+07 -1.266825e+08 -4.585905e+08 -2.740284e+08 -2.495929e+08 1.157355e+08 5.645657e+06 -1.583678e+08 -1.411412e+08 -1.478099e+08 -2.043688e+08 -1.508041e+08 -6.454316e+07 -7.580902e+07 -1.579808e+08 -1.351553e+08 -1.504907e+08 -3.163801e+08 -3.163801e+08 -3.108611e+08 -6.673836e+07 3.537972e+07 3.537972e+07 -9.447487e+07 -9.755955e+07 -9.755955e+07 -4.655987e+07 -5.896945e+07 -1.090247e+08 -1.133773e+08 -1.133773e+08 -1.373035e+08 -1.373035e+08 -1.210449e+08 -1.053945e+08 -1.202643e+08 -1.104962e+08 -1.117566e+08 -9.581148e+07 -9.581148e+07 -9.558986e+07 -9.572015e+07 -9.500325e+07 -8.746022e+07 -8.746022e+07 -1.308055e+08 -1.308055e+08 -1.308055e+08 -1.033194e+08 -8.814190e+07 -8.814190e+07 -8.814190e+07 -2.202316e+08 -2.202316e+08 -2.202316e+08 -1.410356e+08 -1.871650e+08 -1.871650e+08 -1.871650e+08 -1.182761e+07 -4.409712e+08 -4.409712e+08 -4.409712e+08 -8.004551e+08 -2.524318e+08 -2.524318e+08 -2.524318e+08 2.057775e+08 6.441610e+08 6.584959e+07 6.584959e+07 6.584959e+07 -6.969447e+08 -1.808802e+08 -1.808802e+08 -1.808802e+08 -2.837710e+10 -2.837710e+10 -2.837710e+10 -9.492386e+09 -3.979303e+09 -6.480813e+10 -6.480813e+10 -6.480813e+10 1.597966e+10 -1.589548e+10 -1.589548e+10 -1.589548e+10 -2.409496e+10 -2.409496e+10 1.456556e+12 1.456556e+12 1.456556e+12 -1.456925e+13 -8.425824e+12 -3.676647e+14 -3.676647e+14 -3.676647e+14 -5.818475e+14 2.638609e+14 -1.575533e+12 -1.575533e+12 -1.575533e+12 -3.194859e+11 -6.772799e+11 -6.772799e+11 -6.772799e+11 3.466335e+12 3.466335e+12 1.411630e+13 1.411630e+13 -1.620965e+14 -1.620965e+14 -1.620965e+14 8.519330e+14 5.841115e+14 5.841115e+14 5.841115e+14 2.091814e+15 9.153216e+14 9.153216e+14 4.915165e+15 4.915165e+15 1.562032e+12 1.562032e+12 1.562032e+12 2.288398e+13 2.288398e+13 -4.231050e+12 -4.231050e+12 -4.231050e+12 -1.355688e+13 -1.355688e+13 -1.511447e+12 -7.533260e+11 -7.533260e+11 -7.533260e+11 8.535024e+10 5.675480e+08 5.675480e+08 5.675480e+08 -1.178441e+09 -1.178441e+09 3.581522e+12 3.581522e+12 3.581522e+12 -1.323931e+10 -1.323931e+10 3.946350e+10 3.946350e+10 3.946350e+10 1.507313e+10 1.507313e+10 1.612603e+08 1.612603e+08 1.612603e+08 -6.160965e+08 -6.160965e+08 -9.641288e+07 -9.641288e+07 -9.641288e+07 -1.008474e+08 -1.360489e+08 -1.360489e+08 -1.360489e+08 -2.542560e+08 4.136608e+08 4.136608e+08 4.136608e+08 -1.636914e+09 -1.636914e+09 -1.099910e+08 -1.099910e+08 -1.099910e+08 -3.548004e+08 -3.548004e+08 -3.548004e+08 -1.962590e+08 -1.962590e+08 -1.415336e+08 -1.415336e+08 -1.415336e+08 1.425651e+07 1.425651e+07 -2.878743e+08 -2.878743e+08 -2.878743e+08 -1.711114e+08 3.056602e+08 3.056602e+08 -1.114083e+08 -1.114083e+08 -1.114083e+08 -5.885347e+08 -5.885347e+08 -2.006767e+08 -2.006767e+08 -5.154539e+08 -5.154539e+08 -5.154539e+08 -4.567885e+08 9.806295e+11 9.806295e+11 9.806295e+11 2.221857e+11 -1.903865e+09 -1.903865e+09 -7.107827e+11 -7.107827e+11 -7.107827e+11 2.981465e+12 2.981465e+12 2.981465e+12 -2.525708e+11 -2.525708e+11 9.457927e+12 9.457927e+12 9.457927e+12 5.195806e+12 5.195806e+12 -5.342378e+15 -5.342378e+15 -4.659262e+15 -3.020886e+14 -3.020886e+14 -3.020886e+14 4.250049e+13 4.250049e+13 5.484174e+14 3.976633e+14 3.976633e+14 3.976633e+14 3.375284e+15 -5.498270e+12 1.314570e+14 -2.171267e+14 -2.171267e+14 -2.171267e+14 -6.528857e+14 -6.528857e+14 -6.528857e+14 3.720680e+15 3.720680e+15 3.720680e+15 4.385039e+13 4.385039e+13 4.385039e+13 -7.717960e+11 -7.717960e+11 -2.200363e+09 -2.200363e+09 -2.200363e+09 -1.266745e+10 -1.266745e+10 -1.437918e+09 -1.437918e+09 -4.269995e+07 -4.269995e+07 -3.366651e+08 -3.366651e+08 -6.901978e+08 -1.940071e+08 -1.940071e+08 -9.955675e+07 -9.955675e+07 -1.199481e+08 -1.199481e+08 2.626430e+10 -3.917611e+07 2.626430e+10 2.626430e+10 -3.625146e+08 1.284257e+08 1.284257e+08 -1.432385e+09 -1.432385e+09 -1.432385e+09 -1.354771e+10 -1.354771e+10 -1.354771e+10 -4.552116e+08 -7.344759e+11 -7.344759e+11 -1.862346e+12 -1.862346e+12 -9.720769e+12 4.094343e+12 1.623617e+14 2.622414e+16 -1.956751e+14 -1.956751e+14 -9.023320e+13 -9.023320e+13 2.260288e+15 2.318009e+15 7.978305e+13 7.978305e+13 -4.118441e+15 -4.118441e+15 -4.118441e+15 4.568635e+15 -4.255643e+14 8.353240e+12 1.792450e+11 1.792450e+11 2.275705e+15 -1.485196e+14 -1.485196e+14 -1.511447e+12 -3.093282e+13 -3.093282e+13 6.605375e+14 -3.880654e+11 -3.880654e+11 -3.880654e+11 1.636815e+15 -7.834605e+13 -7.834605e+13 4.976419e+14 3.099330e+12 3.099330e+12 3.099330e+12 1.022190e+13 1.022190e+13 -6.566678e+12 1.375513e+13 1.375513e+13 5.647812e+14 2.469557e+12 1.232130e+12 1.606579e+15 1.606579e+15 -8.365455e+13 -3.901686e+14 -1.009834e+14 -1.009834e+14 1.374004e+14 1.190036e+16 -5.898382e+14 -5.898382e+14 1.485276e+15 1.228210e+13 2.266110e+11 -1.932402e+14 4.150903e+12 4.362132e+15 7.874532e+11 7.874532e+11 -5.269446e+14 -3.063623e+14 1.454297e+16 -4.160326e+14 -4.160326e+14 -4.160326e+14 -3.308712e+14 -3.308712e+14 1.377221e+11 1.377221e+11 6.614320e+14 4.997478e+13 4.155568e+11 -3.993179e+15 -4.769062e+14 -4.769062e+14 1.337080e+12 4.079177e+10 -8.825617e+12 -8.730670e+13 1.258995e+11 -5.450005e+13 -1.806417e+13 -7.882120e+12 -3.373796e+11 -3.373796e+11 -8.540440e+11 8.090527e+15 1.110626e+14 -4.472382e+10 -3.150221e+14 7.378933e+07 7.378933e+07 6.453255e+10 -5.978768e+12 -5.631583e+10 -5.631583e+10 -2.077657e+14 1.077192e+12 1.077192e+12 1.077192e+12 9.702353e+10 9.290978e+13 -3.316893e+13 -5.160044e+10 -5.160044e+10 -5.160044e+10 -3.209368e+12 7.659002e+13 -2.819830e+13 -7.073435e+11 -7.073435e+11 2.269912e+12 7.925678e+11 1.350602e+13 7.367699e+12 -9.209640e+13 1.285626e+12 -3.996883e+11 -9.628293e+12 -9.628293e+12 6.401645e+10 6.401645e+10 3.556306e+12 3.556306e+12 3.018461e+10 3.018461e+10 3.593376e+12 9.554136e+11 2.318319e+09 2.318319e+09 -1.032520e+11 -1.032520e+11 -8.639588e+10 -3.910149e+13 5.657319e+10 -1.267460e+11 -1.524046e+12 -6.752585e+11 1.822925e+15 1.822925e+15 1.474930e+13 1.803085e+13 -3.199873e+12 -2.895473e+14 -2.895473e+14 5.356369e+11 -3.096584e+08 -2.406880e+13 -1.001051e+13 3.022986e+12 -1.875833e+10 -1.902609e+14 2.820266e+09 2.820266e+09 2.803208e+12 -2.007986e+07 1.024088e+12 -1.628923e+12 8.155147e+08 -3.406797e+08 -3.406797e+08 -3.406797e+08 -1.401900e+08 -1.401900e+08 1.384970e+12 8.741447e+12 1.896320e+11 1.159360e+12 1.702690e+13 4.497325e+12 1.911303e+10 5.563682e+11 -7.049711e+14 2.137102e+12 -2.528370e+11 2.133332e+11 2.133332e+11 2.133332e+11 4.161669e+11 -3.628215e+09 -1.361471e+10 -7.092038e+09 1.457118e+13 1.457118e+13 -3.937453e+11 -2.494725e+10 -2.494725e+10 -7.646225e+10 -7.646225e+10 1.045381e+13 -7.122160e+10 -5.195548e+10 -5.195548e+10 2.398728e+09 2.398728e+09 -8.196965e+09 4.111046e+10 4.111046e+10 1.160664e+09 -7.002268e+10 -7.002268e+10 -3.126541e+09 -3.126541e+09 -3.126541e+09 -3.150977e+10 2.126915e+13 -3.071398e+08 5.119781e+08 5.119781e+08 1.820255e+11 1.935474e+08 2.534692e+09 2.135541e+13 -2.975837e+10 -1.722800e+13 -2.022298e+09 -1.679168e+09 -1.636039e+10 -1.636039e+10 -2.559553e+09 -2.559553e+09 -2.438657e+09 -1.149466e+10 -8.491060e+09 -8.491060e+09 -3.041808e+09 -3.971960e+10 1.935474e+08 -2.191926e+09 -5.219975e+08 -5.219975e+08 -6.399839e+08 -1.882669e+09 -1.882669e+09 -2.117524e+10 -1.179415e+09 -1.179415e+09 -5.776059e+07 -5.776059e+07 -3.355487e+07 6.476697e+08 6.476697e+08 6.476697e+08 3.307639e+09 -2.812340e+09 -1.902223e+08 -1.480431e+08 2.468922e+09 2.468922e+09 -4.289127e+07 -4.289127e+07 -5.417801e+08 -1.133413e+08 1.639007e+09 1.745150e+08 1.745150e+08 4.768958e+08 8.474293e+08 8.474293e+08 -1.302343e+08 -5.589459e+08 -3.193799e+10 -1.271602e+09 -1.271602e+09 -1.271602e+09 -2.691752e+08 -2.935005e+08 -6.053500e+08 -7.440318e+08 -7.440318e+08 1.167009e+11 1.167009e+11 1.167009e+11 -1.107917e+09 -9.612489e+08 2.218259e+06 2.218259e+06 -6.730677e+08 2.241738e+08 -6.874795e+10 -6.874795e+10 -6.874795e+10 -2.071084e+08 -1.781895e+09 -4.509939e+08 -9.698343e+07 -1.492039e+08 -1.435533e+08 -2.696873e+08 -1.231654e+07 -1.111465e+11 -3.022529e+10 -3.022529e+10 -8.963205e+08 -8.963205e+08 -7.853958e+08 -7.197934e+08 -7.468807e+08 -7.468807e+08 -7.468807e+08 2.781236e+09 -1.803197e+08 -6.719079e+08 -1.862330e+08 -1.629621e+08 -2.805503e+08 4.787003e+13 -3.642985e+08 -6.351986e+08 -5.669999e+08 1.029189e+08 1.029189e+08 -1.693327e+08 -1.693327e+08 -1.693327e+08 -1.185764e+08 2.908075e+08 -2.038570e+08 -3.415119e+07 -1.691485e+08 8.421266e+07 6.253147e+07 -4.656589e+07 -9.977694e+07 -1.513803e+09 -1.513803e+09 -1.513803e+09 2.574783e+08 7.308735e+11 -2.592154e+08 -2.592154e+08 -7.998711e+08 -7.998711e+08 -3.562293e+08 -3.414496e+08 -2.208430e+08 -3.312724e+08 1.484563e+08 1.346282e+08 -3.162571e+07 -3.162571e+07 -2.297621e+08 -1.047530e+06 -1.047530e+06 -1.589063e+08 -1.589063e+08 -2.374477e+08 -2.374477e+08 -2.585428e+08 -4.506153e+07 -4.506153e+07 -2.462323e+08 -8.130104e+07 -7.370866e+07 8.645013e+08 -1.477794e+08 -1.477794e+08 -1.477794e+08 1.928853e+08 1.928853e+08 1.928853e+08 -5.759124e+08 -5.759124e+08 -1.459001e+08 -1.459001e+08 -1.459001e+08 -4.171065e+07 -6.864525e+08 -6.864525e+08 -1.079900e+09 -1.079900e+09 -1.331715e+11 -1.331715e+11 -1.331715e+11 -9.827556e+07 -9.827556e+07 -9.827556e+07 -1.340235e+08 -2.299918e+08 -2.299918e+08 -2.299918e+08 -4.049483e+08 2.539604e+07 2.539604e+07 -2.242009e+08 -2.242009e+08 -2.242009e+08 -2.892251e+08 -2.892251e+08 -2.892251e+08 6.346117e+08 6.346117e+08 6.346117e+08 -7.820553e+08 -7.820553e+08 -7.820553e+08 -5.804531e+05 -4.667327e+10 -4.667327e+10 -4.667327e+10 -1.650868e+08 -1.650868e+08 -1.650868e+08 -7.024749e+08 -7.024749e+08 -7.024749e+08 1.710824e+07 1.710824e+07 1.710824e+07 9.554629e+07 9.554629e+07 -4.140415e+07 -4.140415e+07 5.041745e+07 7.686565e+07 -6.211056e+07 -6.211056e+07 -6.211056e+07 -1.242884e+08 -1.242884e+08 -2.766858e+08 -2.766858e+08 -2.766858e+08 -1.955067e+07 -1.955067e+07 -1.955067e+07 2.121623e+08 2.121623e+08 2.121623e+08 1.608594e+08 -2.734170e+08 -2.734170e+08 -2.734170e+08 -2.869894e+08 -5.291153e+08 -5.291153e+08 -5.291153e+08 -2.446187e+08 -2.446187e+08 -2.446187e+08 -2.212932e+08 -1.994251e+08 -1.955405e+08 -1.955405e+08 -1.955405e+08 -3.831271e+08 -3.831271e+08 -1.571799e+08 -1.571799e+08 -1.939808e+08 -3.688411e+08 -3.688411e+08 -2.423692e+08 -2.423692e+08 -2.423692e+08 -2.570169e+08 -2.570169e+08 -1.799128e+08 -1.799128e+08 -1.799128e+08 -1.442415e+08 2.492579e+12 2.492579e+12 2.492579e+12 -7.050482e+07 -4.206904e+07 -3.866343e+07 -3.866343e+07 -6.714461e+06 -6.714461e+06 -3.662664e+07 -3.662664e+07 -3.662664e+07 7.523499e+07 1.601917e+08 -7.011125e+08 -7.011125e+08 -1.778810e+08 -7.397556e+08 -5.319308e+08 -5.319308e+08 -5.319308e+08 -2.176108e+08 -5.145396e+08 -5.145396e+08 -3.049994e+08 1.677952e+06 1.677952e+06 2.342123e+07 -2.250084e+08 -2.250084e+08 -3.077531e+08 -3.077531e+08 -3.077531e+08 2.468366e+08 2.468366e+08 2.468366e+08 -1.123663e+08 3.904776e+08 -1.168826e+08 -6.333359e+08 -6.333359e+08 -6.333359e+08 -5.089335e+08 3.349323e+07 3.349323e+07 -2.213624e+08 -2.213624e+08 -5.156590e+07 -8.167314e+08 -8.167314e+08 2.050508e+08 2.050508e+08 -8.688544e+07 -8.688544e+07 -8.688544e+07 -1.244487e+08 -1.244487e+08 -1.061462e+08 -1.061462e+08 -1.546604e+08 -1.023466e+08 -1.023466e+08 -1.023466e+08 -3.495218e+08 -3.495218e+08 -2.234111e+07 -2.234111e+07 2.160880e+08 2.160880e+08 -1.718102e+08 -1.718102e+08 -1.458678e+08 -1.329538e+08 -1.329538e+08 -2.554666e+08 -2.554666e+08 -3.821851e+08 -3.821851e+08 -3.821851e+08 -1.507536e+08 -1.507536e+08 -1.507536e+08 -6.393145e+08 -1.261829e+08 -3.109496e+08 -4.317560e+08 -4.317560e+08 -9.579513e+07 -1.377291e+08 -2.942861e+08 -2.942861e+08 -1.584827e+08 -1.584827e+08 -1.584827e+08 -4.529456e+08 -5.106336e+08 -5.106336e+08 -1.333645e+08 -1.333645e+08 -1.077264e+08 -3.781930e+08 -3.246395e+08 -3.246395e+08 -2.006293e+08 -2.006293e+08 -2.006293e+08 -9.058911e+07 -9.058911e+07 -9.091673e+07 -1.978572e+08 -4.849335e+08 -4.849335e+08 -7.790388e+07 3.457833e+07 3.457833e+07 -1.439997e+08 -6.670726e+07 -6.670726e+07 -7.159868e+07 -3.164794e+08 -3.164794e+08 2.012359e+08 2.012359e+08 -1.441058e+08 -2.717554e+08 -2.717554e+08 -2.618503e+08 -2.618503e+08 -3.234815e+08 -1.489743e+08 -3.975041e+08 -3.975041e+08 -2.526665e+08 -1.827179e+08 -4.360524e+08 -4.360524e+08 -1.665278e+08 -2.905698e+08 -2.263932e+09 -2.263932e+09 -2.263932e+09 3.257620e+12 3.257620e+12 3.257620e+12 -1.596876e+08 -1.596876e+08 -7.548854e+07 -7.548854e+07 -7.548854e+07 -3.019242e+08 -1.680595e+09 7.139213e+12 2.787448e+12 -1.607698e+08 -1.607698e+08 -1.607698e+08 -2.256388e+08 -1.433081e+12 -1.433081e+12 -2.796466e+09 -2.796466e+09 -2.796466e+09 -8.426458e+07 -4.172795e+08 -5.027121e+09 -5.027121e+09 2.002987e+13 2.002987e+13 2.002987e+13 -1.700137e+11 -7.738706e+08 -1.390773e+08 -1.390773e+08 -1.390773e+08 -1.436805e+08 -1.436805e+08 1.399594e+08 -8.920904e+07 -6.099131e+10 -1.132578e+08 -4.719640e+08 -4.719640e+08 -5.450151e+10 -1.327709e+10 -1.327709e+10 -5.574383e+07 -5.574383e+07 -5.574383e+07 2.874063e+12 -2.988080e+09 -1.057798e+08 -1.224759e+08 -1.795578e+08 -4.663483e+09 7.540283e+07 -5.822743e+07 -5.822743e+07 -6.713146e+07 -7.205490e+07 -7.205490e+07 -2.208189e+09 -7.156854e+07 -7.156854e+07 -7.156854e+07 -9.130818e+07 -9.130818e+07 1.123881e+08 1.123881e+08 5.100898e+07 -1.809869e+08 -1.809869e+08 -1.372474e+08 -2.392123e+06 -8.649063e+07 -1.799220e+08 -5.722112e+07 -1.335169e+08 -6.803337e+07 -5.722112e+07 -9.700553e+07 2.022644e+10 2.022644e+10 -4.225575e+08 -4.225575e+08 -4.887921e+09 -4.887921e+09 7.132338e+08 -4.805179e+07 -1.495499e+09 -1.791453e+11 8.408493e+11 -8.888661e+07 -8.888661e+07 -9.537171e+07 -2.924355e+08 -1.972012e+07 9.123996e+07 9.123996e+07 1.046296e+10 1.683072e+09 -1.320409e+10 1.865649e+07 1.865649e+07 1.865649e+07 -8.745679e+08 -8.745679e+08 -8.745679e+08 -1.460154e+10 -2.968467e+08 -2.968467e+08 -7.633129e+08 -7.633129e+08 -8.514854e+08 -6.218726e+08 -8.259516e+08 -1.814518e+09 -1.285766e+08 -1.296953e+08 -8.640080e+07 -1.085273e+08 -1.085273e+08 -3.644012e+08 -2.131385e+08 -3.820873e+08 -8.496316e+07 3.956442e+08 3.956442e+08 5.354686e+08 -2.225030e+08 -9.411999e+07 -3.028057e+08 -3.028057e+08 -1.817289e+08 -9.643819e+07 -1.865672e+08 -1.166080e+08 -1.166080e+08 -1.166080e+08 -4.386088e+08 -1.312596e+08 -5.062251e+07 -5.062251e+07 -3.479208e+08 -1.676596e+08 -1.676596e+08 -2.973312e+08 8.171301e+07 -8.606531e+06 -8.606531e+06 -7.709836e+07 -7.709836e+07 -7.709836e+07 -8.568841e+07 -8.568841e+07 -8.864182e+07 -5.670751e+07 -1.524550e+08 -8.901250e+07 4.413231e+07 -1.165045e+08 1.126334e+09 -1.595366e+07 -2.490590e+08 -1.955680e+07 -1.980432e+08 -1.322306e+08 -4.550981e+07 -1.394886e+08 -1.394886e+08 -1.083102e+08 -7.256029e+07 -1.060241e+08 -1.329131e+08 -8.061723e+07 -9.287588e+07 -8.940722e+07 -8.940722e+07 -9.244568e+07 -1.495573e+08 -8.220361e+07 -1.214028e+08 -1.214028e+08 -9.561924e+07 -1.223332e+08 -9.956941e+07 -1.267308e+08 -8.605420e+07 -1.023001e+08 -7.790914e+07 -1.098787e+08 -9.611965e+07 -9.611965e+07 -9.611965e+07 -7.190316e+07 -1.148466e+08 -1.148466e+08 -1.083876e+08 -1.083876e+08 -4.788681e+07 -8.550080e+07 -8.550080e+07 -6.891353e+07 -1.104779e+08 -4.237005e+07 -1.181799e+08 -8.306191e+07 -7.596927e+07 -7.790388e+07 -7.790388e+07 -9.290616e+07 -1.867742e+08 -1.085265e+08 -1.085265e+08 -9.135393e+07 -9.135393e+07 -1.307263e+08 -9.886510e+07 -1.025316e+08 -7.419503e+07 -7.419503e+07 5.757090e+15 5.757090e+15 1.620930e+16 2.767304e+16 4.456310e+16 -3.642054e+15 3.299348e+15 2.276039e+16 9.837154e+09 9.837154e+09 9.837154e+09 3.227770e+09 4.594559e+15 4.594559e+15 4.594559e+15 -1.416223e+17 8.370655e+15 8.370655e+15 -4.975961e+14 -4.975961e+14 -1.376889e+15 1.928473e+15 1.928473e+15 1.928473e+15 -2.380646e+15 1.650879e+10 1.650879e+10 1.650879e+10 7.247277e+10 3.108129e+10 5.398869e+09 -7.606389e+15 -7.606389e+15 -4.809440e+14 3.139957e+15 3.139957e+15 3.139957e+15 6.267856e+11 6.267856e+11 6.267856e+11 4.998508e+13 4.998508e+13 7.787694e+12 -3.881635e+09 8.694933e+15 -8.137836e+13 -8.137836e+13 2.665655e+14 6.313186e+14 -1.206652e+12 -1.206652e+12 -1.206652e+12 6.508658e+10 6.508658e+10 7.787694e+12 -9.674535e+13 -1.016341e+14 2.145395e+15 1.822892e+15 1.822892e+15 2.317677e+14 -1.561375e+13 -6.648627e+12 1.524875e+11 -4.676425e+10 6.317443e+11 6.317443e+11 3.363535e+09 4.046212e+08 -7.966526e+08 -7.966526e+08 -7.966526e+08 -3.781504e+08 -3.781504e+08 -4.445089e+11 -4.338510e+07 -4.338510e+07 -1.116647e+08 -1.308449e+07 -1.308449e+07 -1.308449e+07 -8.282738e+06 -8.282738e+06 -2.313191e+08 -2.313191e+08 -2.313191e+08 3.187783e+08 3.187783e+08 -6.278382e+07 -8.131159e+07 -8.131159e+07 -8.131159e+07 1.525321e+13 1.525321e+13 1.525321e+13 4.261045e+13 2.985375e+15 -9.818302e+07 -9.818302e+07 -9.818302e+07 3.714012e+08 3.714012e+08 3.714012e+08 -5.944694e+08 -5.944694e+08 -5.944694e+08 -3.106624e+08 -3.106624e+08 -5.029543e+08 -5.029543e+08 -5.029543e+08 -3.184702e+08 -3.184702e+08 -8.118369e+08 -8.118369e+08 -8.118369e+08 -4.310087e+08 -4.310087e+08 -4.548049e+08 -4.548049e+08 -4.548049e+08 -2.457652e+08 -2.457652e+08 -2.457652e+08 -1.375867e+11 -1.375867e+11 -1.375867e+11 3.073916e+09 3.073916e+09 -9.006377e+07 -9.006377e+07 -9.006377e+07 -1.456496e+08 -1.456496e+08 -4.153058e+07 -2.269680e+09 -2.269680e+09 -2.269680e+09 -1.185307e+08 4.380690e+08 4.380690e+08 4.380690e+08 -1.876803e+08 -1.096334e+08 -1.096334e+08 -1.096334e+08 6.932132e+14 9.845535e+14 -8.178124e+10 -8.178124e+10 -8.178124e+10 -2.915102e+11 -9.064537e+07 -9.064537e+07 -9.064537e+07 -6.150303e+08 -6.150303e+08 -6.150303e+08 -6.186249e+08 -6.186249e+08 -3.581880e+08 -3.581880e+08 -3.581880e+08 -1.731176e+08 -4.962035e+08 -4.962035e+08 -2.358890e+08 -2.358890e+08 6.206119e+08 -5.742678e+08 -7.317970e+08 -1.069214e+08 3.823781e+13 -3.564534e+08 4.046212e+08 -6.811858e+07 -6.811858e+07 -1.002989e+08 -1.002989e+08 -1.002989e+08 -2.500555e+08 -2.500555e+08 -6.713422e+07 -6.713422e+07 -6.713422e+07 8.103143e+08 8.103143e+08 8.103143e+08 -7.580902e+07 -7.580902e+07 -2.715882e+08 -2.715882e+08 -1.066163e+08 -1.066163e+08 -1.066163e+08 -1.722066e+08 -1.722066e+08 -1.722066e+08 -4.556444e+08 -4.556444e+08 -4.556444e+08 1.753659e+09 -9.447487e+07 -9.447487e+07 -2.573048e+07 -2.573048e+07 -2.740284e+08 -2.740284e+08 -4.597232e+08 -4.597232e+08 -6.609195e+08 -3.360104e+08 -3.360104e+08 -3.360104e+08 -6.482742e+08 4.982773e+13 2.671444e+13 1.233893e+05 -1.136787e+08 -1.136787e+08 -1.136787e+08 -2.621866e+08 -2.621866e+08 7.181262e+08 7.181262e+08 -3.020334e+11 -3.020334e+11 1.675627e+11 1.675627e+11 -1.734467e+08 -1.734467e+08 -4.833874e+08 -3.743019e+08 -3.743019e+08 -2.328557e+08 -2.328557e+08 -2.328557e+08 -3.376668e+08 -5.205018e+08 -4.877757e+07 -1.075137e+08 -1.075137e+08 -1.075137e+08 1.213141e+07 1.213141e+07 1.213141e+07 -5.363661e+07 -1.137131e+08 -1.137131e+08 -1.137131e+08 -6.429211e+07 -6.429211e+07 -6.429211e+07 -1.824476e+08 -1.824476e+08 -5.103225e+08 -6.001344e+08 -2.346100e+08 -2.346100e+08 -3.908966e+08 -3.908966e+08 -3.291783e+08 -4.851367e+08 -3.314659e+08 -2.216867e+08 -8.889067e+07 -8.889067e+07 -1.222637e+08 -6.518273e+07 -1.615690e+08 -1.615690e+08 -2.462545e+08 3.561180e+08 -2.093358e+08 -2.093358e+08 -6.219771e+07 -4.864506e+08 -4.864506e+08 -3.346092e+08 -2.117537e+08 -2.117537e+08 -2.117537e+08 -1.303223e+09 -1.021702e+09 -2.377532e+08 -2.377532e+08 -2.377532e+08 -1.159643e+08 -1.159643e+08 2.189398e+08 -3.297885e+08 2.632650e+07 2.632650e+07 -1.582285e+08 -1.135950e+08 5.774250e+09 5.774250e+09 5.774250e+09 1.737747e+09 -1.029476e+09 -9.641989e+07 -9.641989e+07 -9.641989e+07 -1.819521e+08 -1.707639e+08 -1.707639e+08 -1.010214e+08 -1.010214e+08 6.401237e+07 -3.348102e+08 2.540429e+13 2.392127e+10 -4.350589e+07 -4.350589e+07 -4.350589e+07 -3.072959e+08 -3.072959e+08 -1.964837e+08 -1.964837e+08 -1.964837e+08 -5.144635e+10 -1.886908e+08 -1.527174e+08 -1.527174e+08 -1.961637e+08 -1.961637e+08 -1.805342e+08 -3.002384e+10 -1.021092e+08 -1.021092e+08 -1.021092e+08 -1.200824e+08 -1.200824e+08 -1.165622e+08 -1.165622e+08 -1.165622e+08 -6.033244e+07 -6.033244e+07 -9.556910e+07 -1.450766e+08 -1.450766e+08 -1.064203e+08 -1.064203e+08 -9.723657e+07 -9.723657e+07 -2.169797e+08 -1.993531e+08 -1.993531e+08 -8.330649e+07 -8.330649e+07 -2.175799e+10 -1.374388e+08 -2.095277e+08 -2.095277e+08 -4.698145e+06 -7.493795e+07 -7.493795e+07 -1.631255e+08 -1.631255e+08 -1.631255e+08 -8.513169e+07 -5.640919e+07 -5.640919e+07 -5.640919e+07 -1.709459e+08 -8.616178e+07 -4.784522e+11 -4.784522e+11 -4.784522e+11 -1.544324e+08 -2.829012e+08 -7.886199e+06 -9.611193e+07 -3.795992e+07 -3.237357e+08 1.499038e+09 -9.950038e+07 -9.950038e+07 -6.454698e+07 -8.732934e+07 -8.732934e+07 -8.732934e+07 -4.911204e+07 -9.696921e+07 -2.650477e+08 -1.269958e+08 -1.042890e+08 -1.432999e+08 -1.823197e+08 -1.245549e+08 -1.245549e+08 2.608020e+07 -1.090909e+06 -5.837911e+07 -6.942643e+07 -5.325639e+07 -5.325639e+07 -1.929403e+07 -1.229167e+08 -5.837911e+07 -7.053228e+07 -7.053228e+07 -7.053228e+07 -8.417603e+07 -1.848385e+08 1.930068e+08 -6.887633e+07 -1.205193e+08 -1.205193e+08 -1.205193e+08 -1.449869e+08 -1.449869e+08 -6.887633e+07 -8.409249e+08 -8.409249e+08 -6.183871e+07 2.283511e+08 2.283511e+08 -3.007380e+11 -1.515189e+08 -2.352368e+07 -2.352368e+07 -2.352368e+07 -1.964007e+09 -1.800468e+08 -1.800468e+08 -4.851381e+07 -1.116647e+08 -1.116647e+08 -5.532487e+06 -6.060663e+06 3.587184e+06 -3.350414e+07 -3.350414e+07 -4.556328e+07 -3.730292e+07 -2.942030e+07 -2.942030e+07 -6.301546e+07 -5.532487e+06 -5.532487e+06 -4.704264e+07 -1.266825e+08 -1.084035e+09 3.299812e+12 1.933233e+13 1.933233e+13 -3.151685e+07 -3.914467e+07 -3.914467e+07 -1.039409e+09 -1.170607e+09 1.106015e+11 1.106015e+11 3.772525e+13 -6.332955e+07 5.817580e+13 1.726298e+13 9.885556e+12 5.003288e+08 -1.062244e+11 -1.190843e+08 -3.015722e+10 -4.853676e+16 2.799673e+12 -4.641961e+06 -1.011405e+08 -9.516168e+07 -7.758412e+07 -2.038846e+08 -4.370806e+08 -1.143009e+08 -3.230386e+08 -1.079096e+08 -8.602490e+07 -8.602490e+07 -8.602490e+07 -1.166939e+08 5.645657e+06 5.645657e+06 -1.116651e+08 -4.016909e+08 -2.131258e+08 -1.302022e+08 -6.454316e+07 3.305218e+06 -1.583678e+08 -3.163801e+08 -6.673836e+07 -6.673836e+07 -9.755955e+07 -1.133773e+08 -1.411412e+08 -2.079648e+08 -2.079648e+08 -2.178540e+08 -1.351553e+08 -1.373035e+08 -3.231188e+08 -1.351946e+08 -1.210449e+08 -9.125420e+07 -1.033121e+08 -1.090247e+08 -1.090247e+08 3.537972e+07 -4.655987e+07 -1.343556e+08 -9.581148e+07 -9.558986e+07 -9.558986e+07 -1.053945e+08 -2.065015e+08 -1.104962e+08 -1.104962e+08 -1.094329e+08 -9.203410e+07 -9.203410e+07 -9.192939e+07 -9.192939e+07 -1.209337e+08 -1.202643e+08 -9.464758e+07 -1.006991e+08 -8.469663e+07 -8.469663e+07 -8.469663e+07 -7.931895e+07 -1.115810e+08 -1.117566e+08 -8.946336e+07 -1.335995e+08 -1.243617e+08 -1.571696e+08 -8.672398e+07 -1.413153e+08 -1.014858e+08 -1.014858e+08 -1.006206e+08 -7.974819e+07 -7.974819e+07 -1.170948e+08 -1.170948e+08 -1.042757e+08 -1.279538e+08 -9.929679e+07 -9.397950e+07 -1.042551e+08 -7.484091e+07 -8.623204e+07 -1.026942e+08 -7.792862e+07 -1.216484e+08 -9.624690e+07 4.092890e+11 4.397851e+12 7.924176e+12 2.345953e+12 8.353240e+12 1.228210e+13 1.596129e+13 2.469557e+12 1.678764e+13 5.453168e+13 1.030164e+14 2.292471e+14 2.332188e+14 1.171461e+14 1.303646e+14 6.364090e+13 1.341785e+14 2.939855e+14 2.749846e+14 2.239374e+14 2.812162e+14 5.631006e+14 4.600992e+14 4.295666e+14 7.903786e+14 9.616605e+14 1.232106e+15 6.903787e+14 5.484174e+14 3.586528e+15 2.318009e+15 2.758981e+15 3.095325e+15 2.538827e+15 2.275705e+15 2.576479e+15 4.936856e+15 4.336757e+15 2.356580e+15 1.283245e+16 7.987227e+15 5.190396e+15 9.966546e+15 6.963885e+15 4.498214e+15 1.409326e+16 8.841027e+15 1.436405e+16 1.262360e+16 5.072730e+15 9.840269e+15 6.488580e+15 7.125570e+15 1.140702e+16 1.209584e+16 8.711686e+15 1.190036e+16 1.225785e+16 2.526262e+16 1.023910e+16 2.320094e+16 2.622414e+16 2.533080e+16 8.576938e+15 3.973927e+15 1.075256e+16 1.000811e+16 3.179936e+16 2.979959e+16 3.037337e+16 8.460504e+15 1.772077e+16 3.088002e+16 1.745443e+16 2.150296e+16 1.141902e+16 -1.611528e+16 -8.559589e+16 6.313186e+14 -6.196933e+11 -1.764092e+11 -1.764092e+11 1.933233e+13 -1.498039e+13 3.772525e+13 3.299812e+12 3.299812e+12 1.106015e+11 3.146060e+09 1.405662e+09 3.187783e+08 -2.664776e+08 -4.956360e+08 -8.238752e+08 -1.084035e+09 6.206119e+08 -1.168737e+08 -1.433997e+07 5.810229e+08 1.878045e+08 -2.131258e+08 -3.242191e+08 -3.242191e+08 -4.201083e+08 -3.313487e+08 -2.715882e+08 -3.151685e+07 -1.176647e+08 3.305218e+06 -2.573048e+07 9.389629e+07 -1.266825e+08 -4.585905e+08 -2.740284e+08 -2.495929e+08 1.157355e+08 5.645657e+06 -1.583678e+08 -1.411412e+08 -1.478099e+08 -2.043688e+08 -1.508041e+08 -6.454316e+07 -7.580902e+07 -1.579808e+08 -1.351553e+08 -1.504907e+08 -3.163801e+08 -3.163801e+08 -3.108611e+08 -6.673836e+07 3.537972e+07 3.537972e+07 -9.447487e+07 -9.755955e+07 -9.755955e+07 -4.655987e+07 -5.896945e+07 -1.090247e+08 -1.133773e+08 -1.133773e+08 -1.373035e+08 -1.373035e+08 -1.210449e+08 -1.053945e+08 -1.202643e+08 -1.104962e+08 -1.117566e+08 -9.581148e+07 -9.581148e+07 -9.558986e+07 -9.572015e+07 -9.500325e+07 -8.746022e+07 -8.746022e+07 -1.308055e+08 -1.308055e+08 -1.308055e+08 -1.033194e+08 -8.814190e+07 -8.814190e+07 -8.814190e+07 -2.202316e+08 -2.202316e+08 -2.202316e+08 -1.410356e+08 -1.871650e+08 -1.871650e+08 -1.871650e+08 -1.182761e+07 -4.409712e+08 -4.409712e+08 -4.409712e+08 -8.004551e+08 -2.524318e+08 -2.524318e+08 -2.524318e+08 2.057775e+08 6.441610e+08 6.584959e+07 6.584959e+07 6.584959e+07 -6.969447e+08 -1.808802e+08 -1.808802e+08 -1.808802e+08 -2.837710e+10 -2.837710e+10 -2.837710e+10 -9.492386e+09 -3.979303e+09 -6.480813e+10 -6.480813e+10 -6.480813e+10 1.597966e+10 -1.589548e+10 -1.589548e+10 -1.589548e+10 -2.409496e+10 -2.409496e+10 1.456556e+12 1.456556e+12 1.456556e+12 -1.456925e+13 -8.425824e+12 -3.676647e+14 -3.676647e+14 -3.676647e+14 -5.818475e+14 2.638609e+14 -1.575533e+12 -1.575533e+12 -1.575533e+12 -3.194859e+11 -6.772799e+11 -6.772799e+11 -6.772799e+11 3.466335e+12 3.466335e+12 1.411630e+13 1.411630e+13 -1.620965e+14 -1.620965e+14 -1.620965e+14 8.519330e+14 5.841115e+14 5.841115e+14 5.841115e+14 2.091814e+15 9.153216e+14 9.153216e+14 4.915165e+15 4.915165e+15 1.562032e+12 1.562032e+12 1.562032e+12 2.288398e+13 2.288398e+13 -4.231050e+12 -4.231050e+12 -4.231050e+12 -1.355688e+13 -1.355688e+13 -1.511447e+12 -7.533260e+11 -7.533260e+11 -7.533260e+11 8.535024e+10 5.675480e+08 5.675480e+08 5.675480e+08 -1.178441e+09 -1.178441e+09 3.581522e+12 3.581522e+12 3.581522e+12 -1.323931e+10 -1.323931e+10 3.946350e+10 3.946350e+10 3.946350e+10 1.507313e+10 1.507313e+10 1.612603e+08 1.612603e+08 1.612603e+08 -6.160965e+08 -6.160965e+08 -9.641288e+07 -9.641288e+07 -9.641288e+07 -1.008474e+08 -1.360489e+08 -1.360489e+08 -1.360489e+08 -2.542560e+08 4.136608e+08 4.136608e+08 4.136608e+08 -1.636914e+09 -1.636914e+09 -1.099910e+08 -1.099910e+08 -1.099910e+08 -3.548004e+08 -3.548004e+08 -3.548004e+08 -1.962590e+08 -1.962590e+08 -1.415336e+08 -1.415336e+08 -1.415336e+08 1.425651e+07 1.425651e+07 -2.878743e+08 -2.878743e+08 -2.878743e+08 -1.711114e+08 3.056602e+08 3.056602e+08 -1.114083e+08 -1.114083e+08 -1.114083e+08 -5.885347e+08 -5.885347e+08 -2.006767e+08 -2.006767e+08 -5.154539e+08 -5.154539e+08 -5.154539e+08 -4.567885e+08 9.806295e+11 9.806295e+11 9.806295e+11 2.221857e+11 -1.903865e+09 -1.903865e+09 -7.107827e+11 -7.107827e+11 -7.107827e+11 2.981465e+12 2.981465e+12 2.981465e+12 -2.525708e+11 -2.525708e+11 9.457927e+12 9.457927e+12 9.457927e+12 5.195806e+12 5.195806e+12 -5.342378e+15 -5.342378e+15 -4.659262e+15 -3.020886e+14 -3.020886e+14 -3.020886e+14 4.250049e+13 4.250049e+13 5.484174e+14 3.976633e+14 3.976633e+14 3.976633e+14 3.375284e+15 -5.498270e+12 1.314570e+14 -2.171267e+14 -2.171267e+14 -2.171267e+14 -6.528857e+14 -6.528857e+14 -6.528857e+14 3.720680e+15 3.720680e+15 3.720680e+15 4.385039e+13 4.385039e+13 4.385039e+13 -7.717960e+11 -7.717960e+11 -2.200363e+09 -2.200363e+09 -2.200363e+09 -1.266745e+10 -1.266745e+10 -1.437918e+09 -1.437918e+09 -4.269995e+07 -4.269995e+07 -3.366651e+08 -3.366651e+08 -6.901978e+08 -1.940071e+08 -1.940071e+08 -9.955675e+07 -9.955675e+07 -1.199481e+08 -1.199481e+08 2.626430e+10 -3.917611e+07 2.626430e+10 2.626430e+10 -3.625146e+08 1.284257e+08 1.284257e+08 -1.432385e+09 -1.432385e+09 -1.432385e+09 -1.354771e+10 -