<?xml version="1.0"?>
 <VTKFile type="UnstructuredGrid" version="1.0" byte_order="LittleEndian" header_type="UInt64">
  <UnstructuredGrid>
    <FieldData>
     <DataArray type="Float64" Name="TimeValue" NumberOfTuples="1" format="ascii">
1e-08
     </DataArray>
    </FieldData>
   <Piece NumberOfPoints="3662" NumberOfCells="3444">
    <PointData>
     <DataArray type="Float64" Name="pointP" format="ascii">
2.598780e+16 8.332700e+16 1.880097e+17 8.371803e+16 5.712970e+16 1.533780e+17 6.810630e+16 5.222350e+16 6.750995e+16 8.663214e+16 7.843977e+16 6.549041e+16 4.424816e+16 3.505474e+16 9.081022e+16 3.167318e+16 3.236818e+16 2.678748e+16 2.185878e+16 5.988813e+15 1.766642e+16 1.946445e+16 2.265608e+16 3.725864e+16 2.524702e+16 2.907971e+16 7.622802e+15 3.091503e+16 4.436058e+15 1.311259e+16 5.165443e+16 2.141096e+16 6.345355e+16 3.231983e+16 1.691869e+16 9.514098e+15 3.134770e+16 4.959935e+15 1.955813e+15 3.629062e+15 8.486628e+15 9.748569e+15 4.699887e+15 2.399436e+15 8.144727e+15 1.189671e+16 2.490575e+15 7.383817e+14 2.437478e+15 3.337755e+15 4.785112e+15 8.035988e+15 1.039842e+15 1.071169e+15 1.004006e+15 9.261906e+14 1.515074e+15 1.718324e+15 1.940548e+15 2.655609e+15 4.118422e+14 3.587852e+14 5.909667e+14 2.173580e+14 1.173246e+14 2.537930e+14 1.597424e+14 2.610661e+14 1.747284e+14 8.773155e+13 8.858827e+13 1.295620e+14 1.439942e+14 2.168893e+14 5.465004e+13 9.457894e+13 2.837705e+13 1.187534e+13 3.531609e+12 3.003518e+12 3.967261e+12 2.744655e+12 3.286725e+12 3.075085e+12 1.768974e+12 1.362800e+12 5.304317e+11 3.291060e+11 2.568770e+11 1.355218e+11 -4.062830e+09 1.876000e+10 4.456320e+09 4.919633e+08 -9.286996e+08 -8.203721e+08 -3.162611e+08 -2.143639e+08 -3.035106e+07 4.490779e+07 3.426484e+07 2.959630e+07 3.060377e+07 3.124967e+06 6.272079e+06 8.564076e+06 -9.305258e+07 -1.013882e+08 -2.373976e+08 -1.395173e+08 -2.843142e+08 -1.145113e+09 -2.966372e+10 -3.342635e+11 -3.955013e+11 -1.132410e+11 -1.071471e+11 8.195547e+11 1.021645e+13 3.121242e+13 5.877361e+12 2.429660e+10 -2.658998e+10 -2.658998e+10 1.401713e+07 -1.043591e+07 -4.502624e+07 3.295651e+07 1.290519e+08 9.607466e+07 -6.228934e+07 -6.228934e+07 1.341570e+07 7.158580e+07 5.032392e+07 5.032392e+07 1.073683e+08 1.073683e+08 3.157650e+07 1.806815e+07 2.888653e+07 5.360067e+07 4.840887e+07 1.649168e+08 1.649168e+08 1.178921e+08 1.178921e+08 -2.259146e+07 -1.739364e+08 -9.431715e+06 1.489148e+08 2.899079e+08 -4.139545e+07 -9.100262e+08 -1.854879e+07 8.756185e+08 1.803425e+09 1.371668e+09 -8.164762e+08 -2.143728e+08 1.241985e+09 1.241985e+09 2.982899e+09 2.552526e+08 2.552526e+08 -3.906911e+09 -7.137939e+08 -7.137939e+08 -1.108808e+09 8.760934e+09 8.760934e+09 6.800098e+08 -6.707601e+06 1.869392e+09 1.869392e+09 -4.990803e+10 -1.063838e+12 2.951629e+12 -1.141568e+15 -5.561731e+15 3.327994e+07 1.187214e+08 1.187214e+08 1.187214e+08 2.363619e+07 1.042810e+08 1.042810e+08 1.042810e+08 1.222713e+08 1.222713e+08 1.316158e+08 1.316158e+08 1.316158e+08 1.805044e+08 3.267836e+08 2.657920e+09 6.369778e+07 6.369778e+07 1.056002e+08 7.348229e+07 7.348229e+07 7.348229e+07 4.668989e+07 7.165949e+07 -3.685338e+10 -3.685338e+10 -3.685338e+10 -4.979256e+10 4.837760e+07 4.837760e+07 4.837760e+07 4.292362e+07 1.850934e+07 1.850934e+07 1.896277e+08 1.896277e+08 1.437965e+08 1.253321e+08 3.327994e+07 3.327994e+07 5.144919e+07 5.144919e+07 5.144919e+07 4.717313e+07 8.439833e+05 8.439833e+05 8.070216e+06 1.507184e+09 1.507184e+09 1.507184e+09 4.162086e+09 1.567995e+09 1.259331e+10 5.278753e+09 2.657897e+07 2.657897e+07 2.657897e+07 4.139504e+07 -3.143159e+07 -5.274563e+07 -1.007584e+08 -5.274563e+07 -3.302911e+10 -3.302911e+10 -3.302911e+10 1.108060e+09 1.108060e+09 1.108060e+09 8.092781e+08 -1.033812e+08 -1.711718e+08 -1.033812e+08 -1.033812e+08 -1.335604e+08 -1.335604e+08 -1.335604e+08 -2.397154e+07 -1.488153e+10 -1.488153e+10 -1.488153e+10 -1.041320e+10 -2.799927e+11 -2.799927e+11 -2.799927e+11 -3.073501e+10 -3.073501e+10 -2.540240e+07 -2.540240e+07 -2.540240e+07 3.264950e+08 -2.879712e+14 -2.879712e+14 -2.879712e+14 4.728717e+11 4.728717e+11 -5.975658e+11 -5.975658e+11 -5.975658e+11 -1.207137e+12 1.177286e+09 1.177286e+09 1.177286e+09 3.352301e+08 3.352301e+08 -8.771419e+11 4.284878e+11 4.639884e+13 4.639884e+13 4.639884e+13 2.823130e+13 -1.066523e+15 -1.066523e+15 -1.066523e+15 -7.825692e+13 -7.825692e+13 1.326317e+12 1.326317e+12 1.326317e+12 9.111743e+11 2.567724e+15 2.567724e+15 2.567724e+15 -6.864017e+13 -3.342635e+11 2.185275e+13 2.185275e+13 2.185275e+13 5.464188e+12 5.464188e+12 5.464188e+12 1.941361e+13 9.786330e+11 9.786330e+11 9.786330e+11 1.739597e+12 -2.143639e+08 5.221420e+07 5.221420e+07 5.221420e+07 2.356513e+07 2.829863e+09 2.829863e+09 2.829863e+09 2.281264e+09 2.281264e+09 4.284878e+11 4.284878e+11 -8.771419e+11 -2.064195e+10 -2.064195e+10 -2.064195e+10 -3.362763e+11 -3.362763e+11 3.157218e+08 3.690696e+08 3.690696e+08 1.190815e+07 1.190815e+07 1.190815e+07 2.502744e+08 2.502744e+08 5.996467e+08 5.996467e+08 5.996467e+08 6.739207e+08 -4.798263e+07 -5.716776e+07 -4.798263e+07 -4.798263e+07 -6.575592e+09 1.706755e+08 1.706755e+08 1.706755e+08 1.699941e+08 1.722544e+08 1.837645e+08 1.837645e+08 4.075197e+07 4.075197e+07 2.473365e+07 2.473365e+07 6.765606e+12 6.765606e+12 6.765606e+12 1.921125e+13 1.921125e+13 2.531795e+07 2.531795e+07 2.531795e+07 2.586982e+07 3.035274e+07 3.642669e+07 3.862306e+07 1.700778e+11 1.700778e+11 1.700778e+11 5.408579e+10 6.919379e+08 6.919379e+08 6.919379e+08 1.295761e+09 2.110364e+04 2.110364e+04 2.110364e+04 1.774951e+09 1.774951e+09 1.774951e+09 2.463774e+07 2.463774e+07 2.463774e+07 4.432947e+08 4.432947e+08 4.432947e+08 -4.427226e+07 -4.427226e+07 -4.427226e+07 -6.836653e+07 -7.853564e+07 6.801161e+07 6.801161e+07 6.801161e+07 -6.174153e+07 -6.174153e+07 -6.626584e+07 2.487678e+08 2.487678e+08 2.487678e+08 5.587670e+07 8.130372e+07 8.130372e+07 8.130372e+07 9.786547e+07 -1.627228e+06 -1.627228e+06 3.922906e+08 3.922906e+08 3.922906e+08 5.158269e+08 -5.804020e+07 -5.804020e+07 -5.804020e+07 -1.176210e+08 5.416414e+09 5.416414e+09 5.416414e+09 1.705646e+09 1.512611e+09 1.512611e+09 1.512611e+09 -1.745285e+09 -1.745285e+09 -1.745285e+09 -9.245863e+08 3.559605e+08 3.559605e+08 3.559605e+08 2.385903e+08 1.246896e+09 1.246896e+09 1.246896e+09 5.176855e+08 3.146608e+09 3.146608e+09 3.146608e+09 2.407083e+09 7.657207e+13 7.657207e+13 7.657207e+13 -2.183423e+14 -2.183423e+14 -2.183423e+14 2.106368e+14 2.243322e+13 2.243322e+13 2.243322e+13 1.894548e+14 1.477858e+15 1.477858e+15 -1.697872e+14 9.631000e+13 9.631000e+13 2.377412e+15 -2.995745e+08 -2.995745e+08 -3.817905e+08 -1.168637e+10 -1.168637e+10 -1.168637e+10 -7.276697e+09 6.704386e+11 6.704386e+11 6.704386e+11 -1.563173e+14 -1.563173e+14 2.836857e+14 -1.250989e+10 -1.250989e+10 1.338054e+13 -1.537089e+10 1.132129e+15 -1.163603e+15 5.109605e+06 5.109605e+06 5.663528e+06 -2.238405e+16 -2.238405e+16 -2.238405e+16 6.247797e+15 -3.576437e+11 -3.576437e+11 -2.750495e+14 -2.750495e+14 -2.750495e+14 -6.177608e+14 -6.177608e+14 -6.177608e+14 -2.131878e+14 -2.131878e+14 9.658739e+12 9.658739e+12 9.658739e+12 1.387297e+14 9.651322e+13 9.651322e+13 9.651322e+13 7.369217e+12 7.369217e+12 6.399318e+07 6.399318e+07 6.399318e+07 6.377515e+07 6.377515e+07 1.614878e+09 1.614878e+09 -3.140785e+09 -3.140785e+09 -2.436635e+12 -2.436635e+12 -2.436635e+12 -6.658805e+11 -6.658805e+11 -6.658805e+11 1.352032e+13 8.621353e+10 8.621353e+10 8.621353e+10 -8.360241e+07 -8.360241e+07 -2.877541e+12 -2.877541e+12 -2.877541e+12 -7.639686e+09 -7.639686e+09 -2.041355e+07 -2.041355e+07 -2.041355e+07 4.892243e+07 4.892243e+07 -2.734347e+06 -2.734347e+06 -2.734347e+06 9.446655e+08 9.446655e+08 8.147249e+08 8.147249e+08 8.147249e+08 6.944347e+09 -7.216451e+08 -7.216451e+08 -5.559821e+08 -5.559821e+08 -5.559821e+08 -1.966768e+07 -1.966768e+07 -4.827225e+07 -4.827225e+07 -4.827225e+07 -1.100783e+08 -1.100783e+08 5.786942e+07 5.786942e+07 5.786942e+07 1.841325e+08 1.841325e+08 5.293316e+07 5.293316e+07 7.219429e+06 7.219429e+06 2.774801e+08 2.774801e+08 3.708616e+08 3.708616e+08 4.548656e+07 3.596431e+06 3.596431e+06 3.659913e+12 3.659913e+12 3.659913e+12 -2.868912e+15 -2.868912e+15 2.606215e+11 2.606215e+11 2.636821e+07 2.636821e+07 2.636821e+07 4.687340e+07 8.096133e+07 -2.561942e+12 5.301044e+14 -4.402306e+07 -4.402306e+07 -4.402306e+07 -2.953277e+07 -2.953277e+07 -1.610887e+07 -1.610887e+07 -7.888522e+07 -1.887887e+08 -5.697584e+07 -4.403671e+08 -4.403671e+08 -4.403671e+08 -4.646540e+08 -4.415864e+08 -4.415864e+08 -4.901814e+08 2.832783e+09 2.832783e+09 2.832783e+09 -3.650544e+10 -3.650544e+10 -3.650544e+10 1.503247e+11 -2.190268e+11 4.628600e+14 4.628600e+14 4.628600e+14 1.299482e+11 8.603896e+07 -2.534863e+11 -2.534863e+11 2.956213e+14 2.956213e+14 1.597424e+14 3.580397e+12 3.580397e+12 3.580397e+12 -6.057546e+13 -6.057546e+13 -6.057546e+13 2.915586e+14 1.880097e+17 -6.063943e+15 -6.063943e+15 -3.477380e+15 -3.477380e+15 -3.477380e+15 1.129937e+16 5.843151e+07 5.843151e+07 5.667833e+07 -8.203721e+08 2.461595e+16 2.461595e+16 1.827557e+14 1.827557e+14 -5.012492e+09 -5.012492e+09 -2.228854e+08 -2.228854e+08 -2.228854e+08 1.257455e+16 1.257455e+16 1.584337e+16 -9.154862e+10 -9.154862e+10 -2.360054e+11 -1.654010e+15 6.275619e+15 5.066515e+15 5.066515e+15 -2.688920e+16 -4.199082e+12 -4.199082e+12 -4.199082e+12 4.588439e+13 8.035988e+15 1.511109e+15 8.371803e+16 -7.141430e+15 -4.092893e+14 -4.092893e+14 -8.981613e+14 -8.981613e+14 -8.981613e+14 7.038914e+14 -1.022207e+09 -1.022207e+09 -2.403327e+08 -2.403327e+08 1.287235e+13 8.769036e+14 8.769036e+14 -1.436284e+14 -1.865062e+14 -1.865062e+14 -1.865062e+14 -1.145113e+09 5.222350e+16 -2.731858e+15 -3.761991e+12 -3.761991e+12 -3.761991e+12 1.891924e+14 1.097057e+08 1.097057e+08 3.129983e+09 5.696764e+14 5.696764e+14 3.522421e+14 3.180521e+06 3.180521e+06 2.055555e+10 2.055555e+10 1.767060e+16 1.955813e+15 -5.008185e+13 -6.592991e+13 1.025344e+15 1.025344e+15 -2.415074e+14 -5.090377e+07 -1.037389e+09 -1.037389e+09 -1.727119e+08 -1.727119e+08 1.802718e+08 1.802718e+08 -1.157206e+14 -1.157206e+14 5.720668e+13 -5.659557e+15 3.081175e+12 3.081175e+12 -1.133334e+12 -4.853827e+13 -4.853827e+13 -4.853827e+13 -9.638978e+14 -9.638978e+14 -1.033755e+11 2.192461e+10 2.192461e+10 -1.398217e+14 -3.499782e+14 2.362852e+15 1.064347e+11 2.429660e+10 5.877361e+12 -4.501673e+17 5.832645e+12 1.616706e+12 1.616706e+12 1.616706e+12 -2.008178e+12 -6.555481e+13 -2.034422e+11 -2.593232e+10 -2.593232e+10 7.383817e+14 -1.555029e+14 2.493338e+07 2.493338e+07 1.677114e+15 1.677114e+15 2.203836e+12 2.203836e+12 2.911948e+08 2.731175e+12 2.731175e+12 -5.582464e+09 3.189995e+08 5.641550e+11 3.291983e+11 3.411705e+13 3.411705e+13 1.207548e+12 1.207548e+12 -3.530610e+08 3.378474e+11 -5.350543e+15 1.487062e+13 7.624838e+10 -2.331358e+14 1.103984e+13 -2.445936e+12 1.397955e+07 1.582831e+07 1.970305e+08 -6.605299e+13 -1.441410e+13 -1.442147e+15 -1.442147e+15 4.446239e+13 3.359774e+11 2.173543e+15 5.519626e+07 4.401378e+13 4.401378e+13 -3.203799e+13 -3.203799e+13 -3.203799e+13 1.160404e+09 2.303239e+12 4.648049e+07 1.867564e+13 2.229104e+13 9.835099e+12 9.835099e+12 9.835099e+12 3.320399e+12 3.320399e+12 3.320399e+12 2.322706e+13 -5.584763e+15 2.051705e+12 7.868444e+11 5.057749e+09 5.057749e+09 5.057749e+09 4.832313e+12 4.832313e+12 4.832313e+12 -1.237474e+14 2.497813e+12 2.497813e+12 2.587773e+12 1.061124e+13 3.521935e+12 -2.676880e+08 1.320578e+10 2.253392e+08 2.253392e+08 2.248361e+07 -2.205949e+12 -2.205949e+12 -3.926534e+10 -3.926534e+10 9.719093e+07 -3.031686e+14 1.854349e+09 -3.180752e+14 -1.286100e+14 1.790141e+14 1.790141e+14 1.405029e+13 1.405029e+13 -1.706913e+14 -2.535352e+14 9.170901e+11 1.530718e+13 1.530718e+13 2.155443e+12 2.155443e+12 1.055972e+13 -9.683479e+10 -9.683479e+10 -9.683479e+10 -1.465390e+14 -3.603624e+11 -7.173519e+12 -7.173519e+12 -7.173519e+12 1.767188e+09 1.767188e+09 -6.038550e+13 -2.000281e+13 2.683326e+13 2.683326e+13 2.009547e+14 2.453180e+12 3.614657e+10 4.638645e+12 4.638645e+12 1.644794e+11 6.494109e+12 1.025286e+13 -1.901343e+07 -1.901343e+07 -1.901343e+07 -4.047651e+07 1.093174e+14 1.093174e+14 1.069665e+13 3.145317e+14 7.014326e+12 7.014326e+12 1.094136e+08 1.094136e+08 1.094136e+08 3.577110e+08 -4.543083e+09 6.535048e+08 3.778322e+08 3.778322e+08 2.961451e+12 2.018880e+10 2.018880e+10 2.487723e+10 -1.007010e+12 -4.332950e+11 -4.332950e+11 2.173794e+11 2.173794e+11 -1.908187e+12 -1.676654e+10 -1.676654e+10 2.874863e+09 5.728113e+08 5.728113e+08 2.045573e+11 7.135211e+10 8.164206e+11 1.549819e+12 -8.828513e+07 -8.828513e+07 -8.828513e+07 1.841548e+07 9.055161e+11 -1.765696e+12 7.467806e+08 7.467806e+08 -6.863103e+11 -6.863103e+11 -6.863103e+11 -1.556950e+11 -1.556950e+11 -1.556950e+11 4.677195e+10 1.304067e+08 -6.455417e+10 -6.455417e+10 -6.455417e+10 1.766093e+10 3.447773e+13 1.094652e+08 5.760719e+07 1.291232e+12 6.526747e+09 6.526747e+09 7.322700e+11 3.160660e+10 -1.793402e+12 -3.341971e+12 -3.341971e+12 2.966391e+10 7.942504e+11 7.942504e+11 2.000678e+13 1.063654e+13 -1.176695e+11 -9.447453e+11 -9.447453e+11 1.149157e+13 -4.340308e+10 -4.340308e+10 -8.547837e+10 -8.547837e+10 -6.969942e+11 -6.969942e+11 -9.443954e+10 -9.443954e+10 2.024508e+08 -2.871397e+12 -9.404910e+11 7.939426e+10 7.939426e+10 1.826006e+12 -3.906806e+11 -9.257095e+12 -7.589002e+11 -4.448282e+11 -4.448282e+11 3.718080e+08 -3.389838e+07 9.469708e+10 -4.249039e+11 -2.685695e+11 -2.685695e+11 -7.216803e+07 -9.427509e+10 -9.427509e+10 -3.453741e+11 2.828259e+08 2.828259e+08 2.828259e+08 1.627547e+08 -2.347747e+10 -8.465203e+07 -8.465203e+07 -7.384178e+07 -5.055309e+11 -5.055309e+11 -7.672769e+10 -1.957467e+11 -1.957467e+11 -1.957467e+11 -1.149488e+10 -9.130671e+11 -2.057242e+10 -5.912160e+09 -4.489787e+11 -4.156794e+09 -4.535545e+08 -4.535545e+08 5.905932e+07 2.361295e+07 2.361295e+07 1.496013e+09 1.326955e+08 4.606979e+07 3.179910e+07 3.179910e+07 -2.371394e+10 -2.371394e+10 -2.371394e+10 -2.324093e+11 -2.110549e+10 -2.110549e+10 2.240749e+08 -1.119483e+12 -1.817191e+11 -2.748463e+09 -2.748463e+09 1.777864e+09 1.777864e+09 -3.029261e+15 -1.223252e+12 -1.223252e+12 2.874071e+08 -3.193905e+11 -9.069067e+10 -9.069067e+10 -1.398262e+09 -1.398262e+09 -6.671243e+08 -6.671243e+08 2.192641e+08 -6.365433e+08 2.705868e+10 -1.907655e+10 -6.452681e+10 -6.452681e+10 -1.731742e+10 -7.453587e+07 -7.453587e+07 1.449188e+09 1.449188e+09 2.843133e+08 1.272930e+08 3.701345e+07 1.705650e+08 6.128220e+07 5.408318e+08 -6.171213e+14 -2.581816e+08 -2.581816e+08 -2.581816e+08 -2.004506e+10 -2.004506e+10 -9.724285e+10 2.795603e+11 2.795603e+11 2.795603e+11 -1.485965e+08 -1.485965e+08 -1.165854e+09 -1.165854e+09 -3.529917e+09 -3.252648e+10 1.737349e+08 2.098072e+08 1.205878e+09 1.205878e+09 3.134757e+08 3.460659e+08 -1.434888e+09 -1.434888e+09 -2.622933e+09 6.590591e+07 6.590591e+07 6.590591e+07 -1.309277e+07 -1.629506e+09 -1.085035e+08 -8.512256e+07 -2.613446e+05 -6.417508e+07 4.690996e+08 -1.969131e+10 1.078115e+08 -1.766167e+11 2.939392e+09 2.939392e+09 2.939392e+09 -5.036921e+08 6.787835e+07 1.254258e+09 1.134148e+07 1.062530e+09 7.221354e+08 7.221354e+08 7.221354e+08 4.012193e+08 4.012193e+08 4.012193e+08 4.203670e+08 4.203670e+08 6.102515e+09 1.164257e+09 1.164257e+09 1.164257e+09 3.250115e+08 9.695807e+08 9.695807e+08 9.695807e+08 -3.663305e+07 2.769178e+08 2.769178e+08 2.769178e+08 -7.475381e+09 -7.475381e+09 -7.475381e+09 -5.190004e+07 1.097107e+08 -5.935530e+08 -5.935530e+08 2.601582e+09 -2.291101e+09 -3.182502e+07 -1.053602e+07 -1.053602e+07 -1.053602e+07 -2.162757e+09 2.607875e+08 1.127841e+09 3.710515e+10 2.096281e+06 1.695882e+07 -3.003536e+07 1.255564e+09 1.255564e+09 -9.975286e+07 6.393134e+09 2.333768e+10 1.371696e+08 -7.410279e+08 7.134228e+07 7.134228e+07 6.384706e+08 8.987190e+08 9.073510e+07 9.073510e+07 1.761129e+08 -2.367466e+06 -3.435687e+07 -3.435687e+07 7.923200e+08 7.923200e+08 2.641784e+08 2.744813e+08 -8.411495e+07 -3.317909e+08 3.131549e+08 6.542161e+08 1.237160e+08 4.256881e+08 4.889266e+09 -1.187428e+07 -7.067613e+07 -7.067613e+07 -7.067613e+07 -1.084002e+09 -1.084002e+09 -8.003785e+10 -8.003785e+10 -1.855581e+10 2.300896e+09 1.154942e+09 1.525035e+09 1.525035e+09 4.911801e+07 4.911801e+07 6.258236e+07 1.811402e+07 1.811402e+07 -4.210092e+08 1.061173e+07 5.675769e+06 7.054396e+07 1.075054e+08 7.975553e+07 1.278247e+08 6.789128e+08 -7.148282e+08 -7.148282e+08 -7.148282e+08 5.192024e+07 4.444971e+08 -2.097344e+09 2.561437e+08 -3.448361e+08 -2.602740e+10 -2.602740e+10 -5.735813e+08 8.715833e+08 8.715833e+08 5.620611e+08 5.620611e+08 1.528705e+08 1.119952e+08 -8.861574e+08 -1.016912e+08 6.177097e+08 3.798107e+07 3.308833e+09 3.308833e+09 1.197978e+08 1.197978e+08 1.197978e+08 2.569742e+08 5.791523e+07 7.793101e+08 4.517342e+08 -2.376086e+08 9.922327e+07 6.531615e+08 4.614269e+08 4.614269e+08 -3.655703e+08 -3.655703e+08 2.078348e+07 2.078348e+07 -1.061918e+09 2.764901e+08 2.951081e+08 2.951081e+08 5.096513e+09 -3.781088e+08 5.727987e+08 1.508993e+09 -2.778188e+07 -2.778188e+07 1.150795e+08 5.908353e+07 4.645187e+07 -5.883327e+07 -5.883327e+07 1.434042e+08 1.434042e+08 2.829640e+07 2.522707e+07 2.522707e+07 3.320507e+07 3.597316e+08 9.375813e+05 4.733905e+08 6.937038e+08 2.204140e+08 -1.729783e+09 3.244664e+07 5.537211e+08 5.537211e+08 1.590806e+08 2.165175e+07 -6.575592e+09 3.988634e+06 3.988634e+06 3.988634e+06 2.197940e+07 2.091322e+07 2.091322e+07 -6.003111e+07 -6.003111e+07 5.688390e+11 5.688390e+11 -2.054351e+08 -2.495526e+07 -2.992312e+07 1.359644e+09 1.359644e+09 1.359644e+09 1.464736e+10 1.405087e+08 1.405087e+08 6.205777e+09 6.205777e+09 -1.444297e+08 -1.444297e+08 3.988087e+05 3.706130e+07 3.706130e+07 3.706130e+07 8.874646e+06 8.914005e+07 1.609040e+08 1.609040e+08 -1.876880e+07 6.774031e+06 -5.274563e+07 -5.742912e+06 -2.916337e+07 -2.916337e+07 1.810142e+08 1.130423e+12 6.237889e+07 5.877251e+07 1.082598e+08 4.353856e+07 4.353856e+07 -7.268947e+08 3.515811e+08 9.154403e+12 9.337589e+05 9.337589e+05 -4.312249e+07 1.478394e+13 1.478394e+13 1.912375e+12 -1.205352e+06 -6.572156e+06 -6.572156e+06 -6.572156e+06 -4.041361e+07 3.449620e+10 6.244650e+08 1.789348e+07 7.172289e+07 6.244650e+08 2.234866e+07 2.152364e+08 2.152364e+08 2.230886e+07 4.153913e+07 1.884034e+07 1.286990e+07 1.960989e+07 1.960989e+07 1.960989e+07 4.783707e+07 1.204785e+08 1.204785e+08 1.204785e+08 1.054904e+07 1.054904e+07 1.474017e+07 3.155231e+07 2.165716e+07 2.021570e+07 2.096818e+07 -5.374410e+06 1.306990e+07 9.441657e+06 4.231811e+07 4.231811e+07 2.338689e+07 2.338689e+07 1.786557e+07 7.603754e+07 7.603754e+07 7.603754e+07 7.406643e+07 7.406643e+07 3.432203e+07 3.432203e+07 3.432203e+07 -6.791809e+08 1.686180e+09 1.686180e+09 1.686180e+09 2.657920e+09 2.657920e+09 2.652730e+09 2.652730e+09 2.652730e+09 1.191661e+09 1.191661e+09 3.435063e+07 4.816534e+07 -7.838998e+08 -7.838998e+08 -5.021952e+08 3.538416e+10 5.208905e+08 1.827794e+09 9.983581e+08 -2.561942e+12 6.740273e+10 -1.361158e+08 9.055292e+07 9.055292e+07 8.984451e+07 -1.346280e+09 -4.363707e+08 -4.363707e+08 -4.363707e+08 3.043621e+12 1.160051e+10 1.160051e+10 1.160051e+10 2.737877e+09 6.059241e+09 6.059241e+09 -1.017752e+09 -1.781622e+08 -1.781622e+08 -1.781622e+08 2.585499e+07 3.573903e+07 6.860939e+08 6.860939e+08 6.860939e+08 7.146360e+09 1.283601e+10 1.283601e+10 -4.437251e+08 -4.437251e+08 -4.437251e+08 3.820637e+11 3.820637e+11 3.820637e+11 8.883581e+08 -4.440223e+11 -4.440223e+11 -4.862039e+13 -4.308693e+08 -3.017102e+09 -2.524672e+11 1.293733e+11 5.185449e+13 -2.231340e+09 3.078327e+08 -1.456846e+17 8.619711e+09 -3.484262e+06 -8.237228e+07 -8.237228e+07 8.528182e+07 8.528182e+07 8.528182e+07 -6.228934e+07 8.361842e+09 3.104356e+08 3.104356e+08 -4.822888e+09 -1.376234e+09 -2.683861e+08 -2.683861e+08 -1.189595e+08 -1.189595e+08 8.964064e+08 8.964064e+08 -1.777473e+08 9.761711e+08 4.119969e+08 -2.683396e+07 6.479352e+07 6.479352e+07 1.244905e+08 1.388098e+08 3.159253e+09 3.159253e+09 -3.983272e+07 1.169771e+08 1.169771e+08 1.875700e+08 9.672893e+07 1.182309e+08 6.332821e+07 6.332821e+07 6.332821e+07 5.194354e+07 5.194354e+07 1.046668e+08 4.884010e+07 4.884010e+07 4.884010e+07 1.025642e+08 1.025642e+08 -4.323628e+08 6.030772e+07 6.030772e+07 1.194293e+08 6.495897e+07 6.495897e+07 3.529071e+07 3.875370e+07 -9.835695e+07 6.699389e+07 6.699389e+07 6.699389e+07 1.167542e+08 5.007195e+07 5.533846e+07 9.275822e+07 3.057780e+08 1.146595e+08 4.723602e+07 1.113001e+08 9.607466e+07 6.715229e+07 -5.585700e+08 -5.585700e+08 -5.256597e+08 -5.256597e+08 2.752997e+09 2.752997e+09 2.752997e+09 4.309792e+09 -4.110823e+08 -4.110823e+08 -4.110823e+08 -1.791222e+11 5.935827e+07 5.694194e+07 5.694194e+07 5.694194e+07 1.012602e+08 2.903094e+07 4.987425e+07 -1.063978e+08 6.848390e+07 5.659144e+07 4.032493e+07 5.487061e+07 8.426595e+07 8.160979e+07 6.362480e+07 6.591454e+07 8.828534e+07 6.210563e+07 6.210563e+07 6.435474e+07 6.435474e+07 8.215157e+07 5.782575e+07 7.060702e+07 6.726041e+07 1.405622e+09 7.734442e+08 2.532495e+08 5.159070e+12 2.598780e+16 7.558247e+16 1.178381e+17 1.640665e+17 8.571481e+16 6.673503e+16 5.511708e+16 4.509536e+16 5.076505e+16 4.159332e+16 1.102930e+16 1.401449e+09 1.401449e+09 6.356704e+07 6.356704e+07 1.280810e+08 9.397611e+07 6.071184e+07 6.071184e+07 6.071184e+07 6.063093e+07 5.558859e+07 5.558859e+07 9.690940e+07 9.690940e+07 9.690940e+07 1.365380e+08 1.365380e+08 1.365380e+08 1.583674e+08 1.583674e+08 9.209664e+07 9.209664e+07 9.209664e+07 7.556411e+07 1.401449e+09 4.637594e+08 4.637594e+08 6.064970e+07 6.855455e+07 6.855455e+07 6.468977e+14 6.468977e+14 6.468977e+14 -1.337825e+15 -1.337825e+15 8.303835e+07 5.269892e+07 5.269892e+07 -3.381852e+15 -3.381852e+15 1.017531e+13 -2.799064e+09 -2.799064e+09 -2.799064e+09 -1.067356e+08 -1.067356e+08 -1.067356e+08 1.082823e+09 1.082823e+09 3.817952e+07 -1.126606e+09 -1.126606e+09 -1.126606e+09 -2.854539e+08 -3.036431e+16 -3.036431e+16 -3.036431e+16 -4.282984e+15 -7.668140e+14 -7.216533e+11 -7.216533e+11 -7.216533e+11 5.250078e+16 -1.942255e+15 -1.942255e+15 -1.942255e+15 -2.775337e+15 1.353652e+09 1.571984e+09 1.353652e+09 1.353652e+09 2.228124e+08 2.228124e+08 8.151472e+07 -1.532039e+09 -1.532039e+09 9.707055e+15 4.159332e+16 5.425979e+16 5.425979e+16 -2.775337e+15 2.951629e+12 -1.063838e+12 1.249581e+14 3.501284e+14 4.871955e+12 4.871955e+12 3.974285e+13 -6.285814e+11 3.781820e+13 3.974285e+13 -2.548049e+12 -4.302952e+11 -4.302952e+11 -7.337522e+11 -7.337522e+11 -2.151768e+12 -1.390034e+11 -2.066951e+10 -1.144842e+10 -1.144842e+10 -3.615202e+09 -3.944801e+10 7.856082e+08 4.064865e+08 4.064865e+08 1.571984e+09 -7.967152e+08 -7.967152e+08 1.273382e+09 1.273382e+09 2.414663e+09 5.822553e+08 -3.911413e+08 9.319749e+07 8.151472e+07 8.151472e+07 8.803743e+07 8.803743e+07 8.803743e+07 7.727074e+07 3.982683e+07 7.745205e+07 7.745205e+07 7.745205e+07 6.707542e+07 7.498748e+07 7.498748e+07 7.498748e+07 7.716456e+07 1.806815e+07 7.122874e+07 7.122874e+07 7.122874e+07 9.567407e+07 2.664138e+08 2.664138e+08 2.664138e+08 2.676197e+08 2.236258e+08 2.455246e+08 2.455246e+08 1.505795e+08 1.279372e+08 1.279372e+08 1.279372e+08 1.371668e+09 1.371668e+09 2.483416e+08 2.483416e+08 2.483416e+08 1.831433e+08 1.831433e+08 6.141069e+08 6.141069e+08 6.141069e+08 2.928169e+08 2.928169e+08 3.649352e+09 3.649352e+09 3.649352e+09 -7.978546e+08 -7.978546e+08 -7.978546e+08 3.745224e+08 3.745224e+08 3.745224e+08 7.914512e+07 -6.038486e+08 -1.562700e+08 2.008055e+08 -1.854879e+07 -2.580627e+08 -5.069934e+08 -5.069934e+08 1.828890e+08 1.828890e+08 6.762016e+08 4.033526e+08 5.361062e+07 5.361062e+07 5.361062e+07 1.949190e+08 -1.532039e+09 -2.567880e+07 3.844239e+08 3.844239e+08 3.844239e+08 -3.018070e+08 6.734336e+07 6.450811e+07 -7.734106e+06 7.188065e+07 4.274247e+08 9.796488e+07 8.764155e+07 1.951147e+08 1.951147e+08 5.152353e+07 -1.108808e+09 -1.108808e+09 9.843496e+08 -9.431715e+06 -9.431715e+06 3.464981e+08 1.233967e+09 2.161006e+08 2.161006e+08 1.526091e+08 1.526091e+08 1.526091e+08 -1.294972e+08 1.039762e+07 1.462519e+08 1.075842e+08 1.650896e+08 1.590815e+08 6.203948e+07 6.203948e+07 6.203948e+07 1.276966e+08 1.276966e+08 1.067816e+08 5.698753e+07 5.698753e+07 7.414694e+07 6.483319e+07 3.817952e+07 1.030121e+08 1.030121e+08 2.793341e+07 9.036403e+07 -2.686804e+08 -7.099828e+08 -7.099828e+08 1.637267e+08 1.637267e+08 -9.924666e+09 8.933820e+07 1.489148e+08 -4.515500e+08 1.241985e+09 2.746660e+09 5.308205e+08 5.308205e+08 1.914616e+09 1.914616e+09 1.914616e+09 -5.986161e+10 -1.378539e+10 8.760934e+09 6.800098e+08 6.800098e+08 3.950993e+08 -4.059200e+11 1.649168e+08 1.178921e+08 2.013116e+09 -6.707601e+06 -2.259146e+07 9.984967e+07 1.497309e+08 4.840887e+07 1.498620e+08 5.034509e+07 3.157650e+07 8.709672e+07 8.554485e+07 8.554485e+07 9.031569e+07 7.645412e+07 5.032392e+07 5.859423e+07 5.859423e+07 7.158580e+07 6.114673e+07 1.039641e+08 -5.456391e+08 -5.940586e+08 -1.576215e+09 -6.412666e+09 6.001313e+08 6.855061e+08 1.626410e+09 4.663821e+08 5.297999e+07 8.009396e+07 6.356704e+07 2.598780e+16 8.332700e+16 1.880097e+17 8.371803e+16 5.712970e+16 1.533780e+17 6.810630e+16 5.222350e+16 6.750995e+16 8.663214e+16 7.843977e+16 6.549041e+16 4.424816e+16 3.505474e+16 9.081022e+16 3.167318e+16 3.236818e+16 2.678748e+16 2.185878e+16 5.988813e+15 1.766642e+16 1.946445e+16 2.265608e+16 3.725864e+16 2.524702e+16 2.907971e+16 7.622802e+15 3.091503e+16 4.436058e+15 1.311259e+16 5.165443e+16 2.141096e+16 6.345355e+16 3.231983e+16 1.691869e+16 9.514098e+15 3.134770e+16 4.959935e+15 1.955813e+15 3.629062e+15 8.486628e+15 9.748569e+15 4.699887e+15 2.399436e+15 8.144727e+15 1.189671e+16 2.490575e+15 7.383817e+14 2.437478e+15 3.337755e+15 4.785112e+15 8.035988e+15 1.039842e+15 1.071169e+15 1.004006e+15 9.261906e+14 1.515074e+15 1.718324e+15 1.940548e+15 2.655609e+15 4.118422e+14 3.587852e+14 5.909667e+14 2.173580e+14 1.173246e+14 2.537930e+14 1.597424e+14 2.610661e+14 1.747284e+14 8.773155e+13 8.858827e+13 1.295620e+14 1.439942e+14 2.168893e+14 5.465004e+13 9.457894e+13 2.837705e+13 1.187534e+13 3.531609e+12 3.003518e+12 3.967261e+12 2.744655e+12 3.286725e+12 3.075085e+12 1.768974e+12 1.362800e+12 5.304317e+11 3.291060e+11 2.568770e+11 1.355218e+11 -4.062830e+09 1.876000e+10 4.456320e+09 4.919633e+08 -9.286996e+08 -8.203721e+08 -3.162611e+08 -2.143639e+08 -3.035106e+07 4.490779e+07 3.426484e+07 2.959630e+07 3.060377e+07 3.124967e+06 6.272079e+06 8.564076e+06 -9.305258e+07 -1.013882e+08 -2.373976e+08 -1.395173e+08 -2.843142e+08 -1.145113e+09 -2.966372e+10 -3.342635e+11 -3.955013e+11 -1.132410e+11 -1.071471e+11 8.195547e+11 1.021645e+13 3.121242e+13 5.877361e+12 2.429660e+10 -2.658998e+10 -2.658998e+10 1.401713e+07 1.401713e+07 1.108514e+07 3.295651e+07 1.290519e+08 9.607466e+07 -6.228934e+07 -6.228934e+07 1.341570e+07 7.158580e+07 5.032392e+07 5.032392e+07 1.073683e+08 1.073683e+08 3.157650e+07 1.806815e+07 2.888653e+07 5.360067e+07 4.840887e+07 1.649168e+08 1.649168e+08 1.178921e+08 1.178921e+08 -2.259146e+07 -1.739364e+08 -9.431715e+06 1.489148e+08 2.899079e+08 -4.139545e+07 -9.100262e+08 -1.854879e+07 8.756185e+08 1.803425e+09 1.371668e+09 -8.164762e+08 -2.143728e+08 1.241985e+09 1.241985e+09 2.982899e+09 2.552526e+08 2.552526e+08 -3.906911e+09 -7.137939e+08 -7.137939e+08 -1.108808e+09 8.760934e+09 8.760934e+09 6.800098e+08 -6.707601e+06 1.869392e+09 1.869392e+09 -4.990803e+10 -1.063838e+12 2.951629e+12 -1.141568e+15 -5.561731e+15 3.327994e+07 1.187214e+08 1.187214e+08 1.187214e+08 2.363619e+07 1.042810e+08 1.042810e+08 1.042810e+08 1.222713e+08 1.222713e+08 1.316158e+08 1.316158e+08 1.316158e+08 1.805044e+08 3.267836e+08 2.657920e+09 6.369778e+07 6.369778e+07 1.056002e+08 7.348229e+07 7.348229e+07 7.348229e+07 4.668989e+07 7.165949e+07 -3.685338e+10 -3.685338e+10 -3.685338e+10 -4.979256e+10 4.837760e+07 4.837760e+07 4.837760e+07 4.292362e+07 1.850934e+07 1.850934e+07 1.896277e+08 1.896277e+08 1.437965e+08 1.253321e+08 3.327994e+07 3.327994e+07 5.144919e+07 5.144919e+07 5.144919e+07 4.717313e+07 8.439833e+05 8.439833e+05 8.070216e+06 1.507184e+09 1.507184e+09 1.507184e+09 4.162086e+09 1.567995e+09 1.259331e+10 5.278753e+09 2.657897e+07 2.657897e+07 2.657897e+07 4.139504e+07 -3.143159e+07 -5.274563e+07 -1.007584e+08 -5.274563e+07 -3.302911e+10 -3.302911e+10 -3.302911e+10 1.108060e+09 1.108060e+09 1.108060e+09 8.092781e+08 -1.033812e+08 -1.711718e+08 -1.033812e+08 -1.033812e+08 -1.335604e+08 -1.335604e+08 -1.335604e+08 -2.397154e+07 -1.488153e+10 -1.488153e+10 -1.488153e+10 -1.041320e+10 -2.799927e+11 -2.799927e+11 -2.799927e+11 -3.073501e+10 -3.073501e+10 -2.540240e+07 -2.540240e+07 -2.540240e+07 3.264950e+08 -2.879712e+14 -2.879712e+14 -2.879712e+14 4.728717e+11 4.728717e+11 -5.975658e+11 -5.975658e+11 -5.975658e+11 -1.207137e+12 1.177286e+09 1.177286e+09 1.177286e+09 3.352301e+08 3.352301e+08 -8.771419e+11 4.284878e+11 4.639884e+13 4.639884e+13 4.639884e+13 2.823130e+13 -1.066523e+15 -1.066523e+15 -1.066523e+15 -7.825692e+13 -7.825692e+13 1.326317e+12 1.326317e+12 1.326317e+12 9.111743e+11 2.567724e+15 2.567724e+15 2.567724e+15 -6.864017e+13 -3.342635e+11 2.185275e+13 2.185275e+13 2.185275e+13 5.464188e+12 5.464188e+12 5.464188e+12 1.941361e+13 9.786330e+11 9.786330e+11 9.786330e+11 1.739597e+12 -2.143639e+08 5.221420e+07 5.221420e+07 5.221420e+07 2.356513e+07 2.829863e+09 2.829863e+09 2.829863e+09 2.281264e+09 2.281264e+09 4.284878e+11 4.284878e+11 -8.771419e+11 -2.064195e+10 -2.064195e+10 -2.064195e+10 -3.362763e+11 -3.362763e+11 3.157218e+08 3.690696e+08 3.690696e+08 1.190815e+07 1.190815e+07 1.190815e+07 2.502744e+08 2.502744e+08 5.996467e+08 5.996467e+08 5.996467e+08 6.739207e+08 -4.798263e+07 -5.716776e+07 -4.798263e+07 -4.798263e+07 -6.575592e+09 1.706755e+08 1.706755e+08 1.706755e+08 1.699941e+08 1.722544e+08 1.837645e+08 1.837645e+08 4.075197e+07 4.075197e+07 2.473365e+07 2.473365e+07 6.765606e+12 6.765606e+12 6.765606e+12 1.921125e+13 1.921125e+13 2.531795e+07 2.531795e+07 2.531795e+07 2.586982e+07 3.035274e+07 3.642669e+07 3.862306e+07 1.700778e+11 1.700778e+11 1.700778e+11 5.408579e+10 6.919379e+08 6.919379e+08 6.919379e+08 1.295761e+09 2.110364e+04 2.110364e+04 2.110364e+04 1.774951e+09 1.774951e+09 1.774951e+09 2.463774e+07 2.463774e+07 2.463