<?xml version="1.0"?>
 <VTKFile type="UnstructuredGrid" version="1.0" byte_order="LittleEndian" header_type="UInt64">
  <UnstructuredGrid>
    <FieldData>
     <DataArray type="Float64" Name="TimeValue" NumberOfTuples="1" format="ascii">
3e-05
     </DataArray>
    </FieldData>
   <Piece NumberOfPoints="3662" NumberOfCells="3444">
    <PointData>
     <DataArray type="Float64" Name="pointP" format="ascii">
1.036673e+05 1.036740e+05 1.036630e+05 1.036638e+05 1.036700e+05 1.036460e+05 1.036480e+05 1.036400e+05 1.036287e+05 1.036115e+05 1.035899e+05 1.035756e+05 1.035594e+05 1.035339e+05 1.035298e+05 1.035425e+05 1.035045e+05 1.034888e+05 1.034837e+05 1.034630e+05 1.034568e+05 1.034300e+05 1.034744e+05 1.033811e+05 1.033757e+05 1.033340e+05 1.033015e+05 1.032646e+05 1.032350e+05 1.032076e+05 1.031641e+05 1.031517e+05 1.030888e+05 1.030567e+05 1.030229e+05 1.029631e+05 1.029305e+05 1.028750e+05 1.028260e+05 1.027919e+05 1.027808e+05 1.027446e+05 1.026849e+05 1.026190e+05 1.026066e+05 1.025664e+05 1.025302e+05 1.025142e+05 1.024689e+05 1.024278e+05 1.023862e+05 1.023150e+05 1.022567e+05 1.021802e+05 1.021506e+05 1.020918e+05 1.020260e+05 1.019894e+05 1.019349e+05 1.018996e+05 1.018803e+05 1.018255e+05 1.017873e+05 1.017477e+05 1.017623e+05 1.016729e+05 1.016023e+05 1.015822e+05 1.015469e+05 1.014839e+05 1.014126e+05 1.014021e+05 1.013409e+05 1.012996e+05 1.012473e+05 1.012357e+05 1.011727e+05 1.011587e+05 1.011182e+05 1.010926e+05 1.010630e+05 1.010240e+05 1.009760e+05 1.009501e+05 1.009311e+05 1.009055e+05 1.008824e+05 1.008627e+05 1.008523e+05 1.008334e+05 1.007923e+05 1.007825e+05 1.007427e+05 1.007408e+05 1.007343e+05 1.007058e+05 1.007259e+05 1.007208e+05 1.007115e+05 1.007024e+05 1.007124e+05 1.007128e+05 1.006961e+05 1.006934e+05 1.006787e+05 1.006996e+05 1.006912e+05 1.006683e+05 1.007053e+05 1.006883e+05 1.007123e+05 1.007290e+05 1.007200e+05 1.007353e+05 1.007479e+05 1.007379e+05 1.007766e+05 1.007875e+05 1.008029e+05 1.008158e+05 1.008415e+05 1.008631e+05 1.008989e+05 1.008989e+05 1.024076e+05 1.024569e+05 1.024753e+05 1.024795e+05 1.024853e+05 1.024946e+05 1.025009e+05 1.025009e+05 1.025026e+05 1.025046e+05 1.025117e+05 1.025117e+05 1.025219e+05 1.025219e+05 1.025439e+05 1.025538e+05 1.025712e+05 1.025635e+05 1.025872e+05 1.026352e+05 1.026352e+05 1.026890e+05 1.026890e+05 1.027184e+05 1.027111e+05 1.028048e+05 1.028070e+05 1.028052e+05 1.028925e+05 1.029245e+05 1.029233e+05 1.029522e+05 1.030348e+05 1.030719e+05 1.030904e+05 1.031818e+05 1.032185e+05 1.032185e+05 1.032060e+05 1.033034e+05 1.033034e+05 1.034482e+05 1.033651e+05 1.033651e+05 1.034459e+05 1.035208e+05 1.035208e+05 1.035338e+05 1.035575e+05 1.035716e+05 1.035716e+05 1.036319e+05 1.036195e+05 1.036369e+05 1.036754e+05 1.036345e+05 1.024025e+05 1.026775e+05 1.026775e+05 1.026775e+05 1.027219e+05 1.024691e+05 1.024691e+05 1.024691e+05 1.025099e+05 1.025099e+05 1.027207e+05 1.027207e+05 1.027207e+05 1.027385e+05 1.026857e+05 1.024267e+05 1.025650e+05 1.025650e+05 1.025877e+05 1.026647e+05 1.026647e+05 1.026647e+05 1.026649e+05 1.026444e+05 1.020054e+05 1.020054e+05 1.020054e+05 1.019731e+05 1.024520e+05 1.024520e+05 1.024520e+05 1.024595e+05 1.024618e+05 1.024618e+05 1.026558e+05 1.026558e+05 1.026061e+05 1.025534e+05 1.024025e+05 1.024025e+05 1.024891e+05 1.024891e+05 1.024891e+05 1.024790e+05 1.024782e+05 1.024782e+05 1.024687e+05 1.025198e+05 1.025198e+05 1.025198e+05 1.025475e+05 1.025636e+05 1.025572e+05 1.025809e+05 1.024664e+05 1.024664e+05 1.024664e+05 1.024458e+05 1.024518e+05 1.024217e+05 1.023306e+05 1.024217e+05 1.029576e+05 1.029576e+05 1.029576e+05 1.030648e+05 1.030648e+05 1.030648e+05 1.030034e+05 1.016000e+05 1.015963e+05 1.016000e+05 1.016000e+05 1.020991e+05 1.020991e+05 1.020991e+05 1.020640e+05 1.026305e+05 1.026305e+05 1.026305e+05 1.026490e+05 1.030222e+05 1.030222e+05 1.030222e+05 1.029872e+05 1.029872e+05 1.011341e+05 1.011341e+05 1.011341e+05 1.011370e+05 1.010877e+05 1.010877e+05 1.010877e+05 1.011075e+05 1.011075e+05 1.035247e+05 1.035247e+05 1.035247e+05 1.035389e+05 1.012394e+05 1.012394e+05 1.012394e+05 1.013142e+05 1.013142e+05 1.011493e+05 1.012311e+05 1.028262e+05 1.028262e+05 1.028262e+05 1.028334e+05 1.030851e+05 1.030851e+05 1.030851e+05 1.031378e+05 1.031378e+05 1.012158e+05 1.012158e+05 1.012158e+05 1.012366e+05 1.029122e+05 1.029122e+05 1.029122e+05 1.029523e+05 1.007353e+05 1.018022e+05 1.018022e+05 1.018022e+05 1.013086e+05 1.013086e+05 1.013086e+05 1.012839e+05 1.010428e+05 1.010428e+05 1.010428e+05 1.009658e+05 1.007208e+05 1.007785e+05 1.007785e+05 1.007785e+05 1.007721e+05 1.009592e+05 1.009592e+05 1.009592e+05 1.010478e+05 1.010478e+05 1.012311e+05 1.012311e+05 1.011493e+05 1.031455e+05 1.031455e+05 1.031455e+05 1.031355e+05 1.031355e+05 1.013715e+05 1.014260e+05 1.014260e+05 1.028376e+05 1.028376e+05 1.028376e+05 1.028299e+05 1.028299e+05 1.029376e+05 1.029376e+05 1.029376e+05 1.029352e+05 1.018627e+05 1.017979e+05 1.018627e+05 1.018627e+05 1.021272e+05 1.025365e+05 1.025365e+05 1.025365e+05 1.024633e+05 1.025111e+05 1.025650e+05 1.025650e+05 1.024058e+05 1.024058e+05 1.024404e+05 1.024404e+05 1.027048e+05 1.027048e+05 1.027048e+05 1.027337e+05 1.027337e+05 1.024592e+05 1.024592e+05 1.024592e+05 1.024949e+05 1.025065e+05 1.024633e+05 1.024551e+05 1.028111e+05 1.028111e+05 1.028111e+05 1.028031e+05 1.028645e+05 1.028645e+05 1.028645e+05 1.028281e+05 1.024009e+05 1.024009e+05 1.024009e+05 1.031829e+05 1.031829e+05 1.031829e+05 1.019121e+05 1.019121e+05 1.019121e+05 1.032980e+05 1.032980e+05 1.032980e+05 1.014624e+05 1.014624e+05 1.014624e+05 1.016068e+05 1.015217e+05 1.016544e+05 1.016544e+05 1.016544e+05 1.014799e+05 1.014799e+05 1.015549e+05 1.018372e+05 1.018372e+05 1.018372e+05 1.018682e+05 1.015075e+05 1.015075e+05 1.015075e+05 1.015068e+05 1.015146e+05 1.015146e+05 1.035565e+05 1.035565e+05 1.035565e+05 1.035349e+05 1.013353e+05 1.013353e+05 1.013353e+05 1.013789e+05 1.012392e+05 1.012392e+05 1.012392e+05 1.012874e+05 1.031773e+05 1.031773e+05 1.031773e+05 1.018274e+05 1.018274e+05 1.018274e+05 1.018855e+05 1.011302e+05 1.011302e+05 1.011302e+05 1.011691e+05 1.009528e+05 1.009528e+05 1.009528e+05 1.010517e+05 1.012522e+05 1.012522e+05 1.012522e+05 1.012681e+05 1.036144e+05 1.036144e+05 1.036144e+05 1.032865e+05 1.032865e+05 1.032865e+05 1.032918e+05 1.030693e+05 1.030693e+05 1.030693e+05 1.029927e+05 1.027414e+05 1.027414e+05 1.027632e+05 1.014101e+05 1.014101e+05 1.014125e+05 1.007062e+05 1.007062e+05 1.007710e+05 1.009403e+05 1.009403e+05 1.009403e+05 1.009637e+05 1.011514e+05 1.011514e+05 1.011514e+05 1.032312e+05 1.032312e+05 1.032505e+05 1.012325e+05 1.012325e+05 1.011953e+05 1.009617e+05 1.029063e+05 1.028959e+05 1.007745e+05 1.007745e+05 1.007105e+05 1.034951e+05 1.034951e+05 1.034951e+05 1.034751e+05 1.010709e+05 1.010709e+05 1.025817e+05 1.025817e+05 1.025817e+05 1.036100e+05 1.036100e+05 1.036100e+05 1.035861e+05 1.035861e+05 1.034761e+05 1.034761e+05 1.034761e+05 1.034749e+05 1.031969e+05 1.031969e+05 1.031969e+05 1.032130e+05 1.032130e+05 1.009496e+05 1.009496e+05 1.009496e+05 1.009853e+05 1.009853e+05 1.035518e+05 1.035518e+05 1.035899e+05 1.035899e+05 1.035770e+05 1.035770e+05 1.035770e+05 1.029302e+05 1.029302e+05 1.029302e+05 1.029427e+05 1.009879e+05 1.009879e+05 1.009879e+05 1.008853e+05 1.008853e+05 1.011553e+05 1.011553e+05 1.011553e+05 1.011350e+05 1.011350e+05 1.014325e+05 1.014325e+05 1.014325e+05 1.014862e+05 1.014862e+05 1.021133e+05 1.021133e+05 1.021133e+05 1.022034e+05 1.022034e+05 1.026388e+05 1.026388e+05 1.026388e+05 1.026511e+05 1.032994e+05 1.032994e+05 1.033827e+05 1.033827e+05 1.033827e+05 1.033224e+05 1.033224e+05 1.018530e+05 1.018530e+05 1.018530e+05 1.017977e+05 1.017977e+05 1.020269e+05 1.020269e+05 1.020269e+05 1.019399e+05 1.019399e+05 1.021173e+05 1.021173e+05 1.022018e+05 1.022018e+05 1.024815e+05 1.024815e+05 1.026065e+05 1.026065e+05 1.021884e+05 1.022838e+05 1.022838e+05 1.026540e+05 1.026540e+05 1.026540e+05 1.027080e+05 1.027080e+05 1.026115e+05 1.026115e+05 1.024512e+05 1.024512e+05 1.024512e+05 1.024695e+05 1.025721e+05 1.024294e+05 1.025540e+05 1.023937e+05 1.023937e+05 1.023937e+05 1.024080e+05 1.024080e+05 1.019724e+05 1.019724e+05 1.019876e+05 1.019815e+05 1.020149e+05 1.031326e+05 1.031326e+05 1.031326e+05 1.030665e+05 1.034393e+05 1.034393e+05 1.034139e+05 1.009003e+05 1.009003e+05 1.009003e+05 1.008697e+05 1.008697e+05 1.008697e+05 1.008805e+05 1.009254e+05 1.034065e+05 1.034065e+05 1.034065e+05 1.010400e+05 1.007085e+05 1.007654e+05 1.007654e+05 1.029894e+05 1.029894e+05 1.016023e+05 1.016410e+05 1.016410e+05 1.016410e+05 1.019135e+05 1.019135e+05 1.019135e+05 1.018636e+05 1.036630e+05 1.036902e+05 1.036902e+05 1.035962e+05 1.035962e+05 1.035962e+05 1.035528e+05 1.007617e+05 1.007617e+05 1.007865e+05 1.007058e+05 1.036321e+05 1.036321e+05 1.033505e+05 1.033505e+05 1.007760e+05 1.007760e+05 1.008076e+05 1.008076e+05 1.008076e+05 1.034932e+05 1.034932e+05 1.035188e+05 1.009381e+05 1.009381e+05 1.009194e+05 1.032052e+05 1.034744e+05 1.034379e+05 1.034379e+05 1.034523e+05 1.015930e+05 1.015930e+05 1.015930e+05 1.015681e+05 1.023150e+05 1.023386e+05 1.036638e+05 1.036461e+05 1.026739e+05 1.026739e+05 1.024546e+05 1.024546e+05 1.024546e+05 1.024220e+05 1.007554e+05 1.007554e+05 1.007996e+05 1.007996e+05 1.013489e+05 1.034189e+05 1.034189e+05 1.034272e+05 1.018409e+05 1.018409e+05 1.018409e+05 1.007290e+05 1.036400e+05 1.035653e+05 1.021311e+05 1.021311e+05 1.021311e+05 1.020876e+05 1.007976e+05 1.007976e+05 1.008310e+05 1.020731e+05 1.020731e+05 1.019930e+05 1.007709e+05 1.007709e+05 1.008700e+05 1.008700e+05 1.035645e+05 1.028260e+05 1.028460e+05 1.019720e+05 1.035592e+05 1.035592e+05 1.024958e+05 1.007439e+05 1.007746e+05 1.007746e+05 1.007236e+05 1.007236e+05 1.008171e+05 1.008171e+05 1.034030e+05 1.034030e+05 1.016559e+05 1.035329e+05 1.015070e+05 1.015070e+05 1.015596e+05 1.022132e+05 1.022132e+05 1.022132e+05 1.037235e+05 1.037235e+05 1.010898e+05 1.008662e+05 1.008662e+05 1.023218e+05 1.022794e+05 1.025738e+05 1.012841e+05 1.008631e+05 1.008415e+05 1.034580e+05 1.018933e+05 1.010106e+05 1.010106e+05 1.010106e+05 1.010710e+05 1.033366e+05 1.009746e+05 1.008515e+05 1.008515e+05 1.025142e+05 1.023854e+05 1.007844e+05 1.007844e+05 1.034841e+05 1.034841e+05 1.009840e+05 1.009840e+05 1.008453e+05 1.018461e+05 1.018461e+05 1.009299e+05 1.008832e+05 1.010125e+05 1.009566e+05 1.017801e+05 1.017801e+05 1.017348e+05 1.017348e+05 1.007914e+05 1.010728e+05 1.036060e+05 1.008677e+05 1.009884e+05 1.024718e+05 1.030599e+05 1.010234e+05 1.008509e+05 1.008816e+05 1.008729e+05 1.024578e+05 1.024456e+05 1.036184e+05 1.036184e+05 1.017560e+05 1.018111e+05 1.027205e+05 1.008043e+05 1.031357e+05 1.031357e+05 1.026689e+05 1.026689e+05 1.026689e+05 1.010272e+05 1.016894e+05 1.008334e+05 1.032815e+05 1.033060e+05 1.033563e+05 1.033563e+05 1.033563e+05 1.023518e+05 1.023518e+05 1.023518e+05 1.023118e+05 1.035594e+05 1.016643e+05 1.017058e+05 1.010923e+05 1.010923e+05 1.010923e+05 1.026189e+05 1.026189e+05 1.026189e+05 1.026015e+05 1.020606e+05 1.020606e+05 1.020967e+05 1.013922e+05 1.014473e+05 1.008432e+05 1.009156e+05 1.009142e+05 1.009142e+05 1.009121e+05 1.009832e+05 1.009832e+05 1.010553e+05 1.010553e+05 1.008810e+05 1.034823e+05 1.010497e+05 1.036301e+05 1.036517e+05 1.035354e+05 1.035354e+05 1.035365e+05 1.035365e+05 1.025864e+05 1.027056e+05 1.013341e+05 1.034260e+05 1.034260e+05 1.027521e+05 1.027521e+05 1.032710e+05 1.011941e+05 1.011941e+05 1.011941e+05 1.029659e+05 1.011384e+05 1.009036e+05 1.009036e+05 1.009036e+05 1.009853e+05 1.009853e+05 1.021619e+05 1.022244e+05 1.036378e+05 1.036378e+05 1.036349e+05 1.010436e+05 1.011057e+05 1.019756e+05 1.019756e+05 1.018844e+05 1.024099e+05 1.034480e+05 1.010087e+05 1.010087e+05 1.010087e+05 1.010009e+05 1.036399e+05 1.036399e+05 1.036350e+05 1.035076e+05 1.035128e+05 1.035128e+05 1.010655e+05 1.010655e+05 1.010655e+05 1.008497e+05 1.008695e+05 1.009463e+05 1.009914e+05 1.009914e+05 1.015641e+05 1.014024e+05 1.014024e+05 1.014817e+05 1.028811e+05 1.028046e+05 1.028046e+05 1.034958e+05 1.034958e+05 1.011297e+05 1.018258e+05 1.018258e+05 1.011016e+05 1.011809e+05 1.011809e+05 1.012587e+05 1.013123e+05 1.016441e+05 1.033603e+05 1.010750e+05 1.010750e+05 1.010750e+05 1.009337e+05 1.034738e+05 1.034658e+05 1.013406e+05 1.013406e+05 1.033930e+05 1.033930e+05 1.033930e+05 1.023760e+05 1.023760e+05 1.023760e+05 1.018837e+05 1.009428e+05 1.021889e+05 1.021889e+05 1.021889e+05 1.011350e+05 1.036179e+05 1.010579e+05 1.010337e+05 1.015667e+05 1.016874e+05 1.016874e+05 1.019790e+05 1.014694e+05 1.035632e+05 1.036210e+05 1.036210e+05 1.013204e+05 1.031707e+05 1.031707e+05 1.030762e+05 1.030825e+05 1.033444e+05 1.033204e+05 1.033204e+05 1.029864e+05 1.021766e+05 1.021766e+05 1.020920e+05 1.020920e+05 1.032486e+05 1.032486e+05 1.032108e+05 1.032108e+05 1.013864e+05 1.036085e+05 1.035914e+05 1.015785e+05 1.015785e+05 1.025962e+05 1.012327e+05 1.027014e+05 1.030656e+05 1.025700e+05 1.025700e+05 1.012717e+05 1.010437e+05 1.022932e+05 1.033636e+05 1.034041e+05 1.034041e+05 1.011722e+05 1.024458e+05 1.024458e+05 1.024397e+05 1.015003e+05 1.015003e+05 1.015003e+05 1.012089e+05 1.020831e+05 1.012500e+05 1.012500e+05 1.011377e+05 1.027312e+05 1.027312e+05 1.023600e+05 1.034907e+05 1.034907e+05 1.034907e+05 1.018588e+05 1.035299e+05 1.019594e+05 1.027383e+05 1.024640e+05 1.015674e+05 1.016700e+05 1.016700e+05 1.010860e+05 1.011346e+05 1.011346e+05 1.012070e+05 1.012427e+05 1.011467e+05 1.012172e+05 1.012172e+05 1.035585e+05 1.035585e+05 1.035585e+05 1.032828e+05 1.032898e+05 1.032898e+05 1.012134e+05 1.034445e+05 1.026371e+05 1.016645e+05 1.016645e+05 1.013271e+05 1.013271e+05 1.011355e+05 1.035908e+05 1.035908e+05 1.012617e+05 1.028814e+05 1.028299e+05 1.028299e+05 1.019944e+05 1.019944e+05 1.028934e+05 1.028934e+05 1.015023e+05 1.014349e+05 1.011194e+05 1.025904e+05 1.035782e+05 1.035782e+05 1.033374e+05 1.024267e+05 1.024267e+05 1.023729e+05 1.023729e+05 1.013592e+05 1.015814e+05 1.012093e+05 1.010992e+05 1.019053e+05 1.018597e+05 1.011701e+05 1.022339e+05 1.022339e+05 1.022339e+05 1.033951e+05 1.033951e+05 1.034502e+05 1.013268e+05 1.013268e+05 1.013268e+05 1.013359e+05 1.013359e+05 1.029767e+05 1.029767e+05 1.030092e+05 1.034447e+05 1.034732e+05 1.015206e+05 1.032841e+05 1.032841e+05 1.032782e+05 1.018081e+05 1.033748e+05 1.033748e+05 1.020948e+05 1.013507e+05 1.013507e+05 1.013507e+05 1.013238e+05 1.025061e+05 1.013958e+05 1.014146e+05 1.014279e+05 1.012951e+05 1.025210e+05 1.022880e+05 1.012917e+05 1.034926e+05 1.034755e+05 1.034755e+05 1.034755e+05 1.035256e+05 1.013102e+05 1.034829e+05 1.031100e+05 1.031573e+05 1.023483e+05 1.023483e+05 1.023483e+05 1.016711e+05 1.016711e+05 1.016711e+05 1.016891e+05 1.016891e+05 1.035085e+05 1.034444e+05 1.034444e+05 1.034444e+05 1.018455e+05 1.029955e+05 1.029955e+05 1.029955e+05 1.017348e+05 1.025457e+05 1.025457e+05 1.025457e+05 1.013785e+05 1.013785e+05 1.013785e+05 1.013171e+05 1.015502e+05 1.032463e+05 1.032463e+05 1.028657e+05 1.034393e+05 1.015793e+05 1.015874e+05 1.015874e+05 1.015874e+05 1.021441e+05 1.031722e+05 1.031108e+05 1.014244e+05 1.014556e+05 1.019452e+05 1.016560e+05 1.034206e+05 1.034206e+05 1.034239e+05 1.033394e+05 1.027408e+05 1.019605e+05 1.033545e+05 1.016830e+05 1.016830e+05 1.017057e+05 1.021405e+05 1.017963e+05 1.017963e+05 1.017278e+05 1.016889e+05 1.014847e+05 1.014847e+05 1.025091e+05 1.025091e+05 1.025714e+05 1.025133e+05 1.032226e+05 1.032215e+05 1.020118e+05 1.020695e+05 1.028367e+05 1.034564e+05 1.035171e+05 1.015424e+05 1.017559e+05 1.017559e+05 1.017559e+05 1.033230e+05 1.033230e+05 1.023556e+05 1.023556e+05 1.023737e+05 1.031728e+05 1.027830e+05 1.028052e+05 1.028052e+05 1.018010e+05 1.018010e+05 1.017256e+05 1.016006e+05 1.016006e+05 1.018978e+05 1.015557e+05 1.016679e+05 1.017695e+05 1.018132e+05 1.018173e+05 1.018757e+05 1.029527e+05 1.025905e+05 1.025905e+05 1.025905e+05 1.026389e+05 1.032546e+05 1.034196e+05 1.020944e+05 1.033512e+05 1.024954e+05 1.024954e+05 1.026420e+05 1.023033e+05 1.023033e+05 1.023432e+05 1.023432e+05 1.019549e+05 1.019874e+05 1.020053e+05 1.016735e+05 1.021586e+05 1.017840e+05 1.025442e+05 1.025442e+05 1.021366e+05 1.021366e+05 1.021366e+05 1.020718e+05 1.032832e+05 1.032799e+05 1.019926e+05 1.017725e+05 1.019230e+05 1.027448e+05 1.022671e+05 1.022671e+05 1.026404e+05 1.026404e+05 1.019551e+05 1.019551e+05 1.024596e+05 1.032120e+05 1.031157e+05 1.031157e+05 1.030427e+05 1.019267e+05 1.025979e+05 1.032417e+05 1.020440e+05 1.020440e+05 1.020952e+05 1.022931e+05 1.023436e+05 1.031058e+05 1.031058e+05 1.021913e+05 1.021913e+05 1.020711e+05 1.020526e+05 1.020526e+05 1.023340e+05 1.029505e+05 1.020303e+05 1.025637e+05 1.028560e+05 1.030830e+05 1.020362e+05 1.022271e+05 1.027177e+05 1.027177e+05 1.029506e+05 1.021158e+05 1.021272e+05 1.021671e+05 1.021671e+05 1.021671e+05 1.022035e+05 1.023838e+05 1.023838e+05 1.029733e+05 1.029733e+05 1.028812e+05 1.028812e+05 1.024218e+05 1.022301e+05 1.022138e+05 1.026635e+05 1.026635e+05 1.026635e+05 1.025902e+05 1.022842e+05 1.022842e+05 1.027054e+05 1.027054e+05 1.024407e+05 1.024407e+05 1.024797e+05 1.023101e+05 1.023101e+05 1.023101e+05 1.022912e+05 1.024484e+05 1.023786e+05 1.023786e+05 1.021824e+05 1.023350e+05 1.024217e+05 1.023307e+05 1.023091e+05 1.023091e+05 1.022903e+05 1.028072e+05 1.023757e+05 1.023842e+05 1.024367e+05 1.023020e+05 1.023020e+05 1.026172e+05 1.025851e+05 1.027719e+05 1.023506e+05 1.023506e+05 1.022588e+05 1.027831e+05 1.027831e+05 1.026949e+05 1.024369e+05 1.024302e+05 1.024302e+05 1.024302e+05 1.024121e+05 1.026109e+05 1.024532e+05 1.024334e+05 1.025307e+05 1.024532e+05 1.024913e+05 1.025309e+05 1.025309e+05 1.024751e+05 1.024990e+05 1.024239e+05 1.024428e+05 1.024329e+05 1.024329e+05 1.024329e+05 1.024387e+05 1.025055e+05 1.025055e+05 1.025055e+05 1.024255e+05 1.024255e+05 1.025214e+05 1.024498e+05 1.024036e+05 1.025226e+05 1.024440e+05 1.025021e+05 1.024357e+05 1.024271e+05 1.024739e+05 1.024739e+05 1.024776e+05 1.024776e+05 1.024293e+05 1.024750e+05 1.024750e+05 1.024750e+05 1.024714e+05 1.024714e+05 1.024456e+05 1.024456e+05 1.024456e+05 1.031254e+05 1.031765e+05 1.031765e+05 1.031765e+05 1.024267e+05 1.024267e+05 1.030869e+05 1.030869e+05 1.030869e+05 1.031802e+05 1.031802e+05 1.024797e+05 1.024344e+05 1.030871e+05 1.030871e+05 1.030370e+05 1.024928e+05 1.031902e+05 1.031897e+05 1.031954e+05 1.024294e+05 1.024170e+05 1.024368e+05 1.024985e+05 1.024985e+05 1.025298e+05 1.035809e+05 1.027788e+05 1.027788e+05 1.027788e+05 1.026898e+05 1.029660e+05 1.029660e+05 1.029660e+05 1.029975e+05 1.029670e+05 1.029670e+05 1.034523e+05 1.028136e+05 1.028136e+05 1.028136e+05 1.028777e+05 1.025816e+05 1.035368e+05 1.035368e+05 1.035368e+05 1.029820e+05 1.034257e+05 1.034257e+05 1.032835e+05 1.032835e+05 1.032835e+05 1.028771e+05 1.028771e+05 1.028771e+05 1.030207e+05 1.029059e+05 1.029059e+05 1.028037e+05 1.030391e+05 1.027874e+05 1.028872e+05 1.029175e+05 1.027394e+05 1.027591e+05 1.026466e+05 1.027584e+05 1.026123e+05 1.025974e+05 1.026374e+05 1.026374e+05 1.025893e+05 1.025893e+05 1.025893e+05 1.025009e+05 1.035299e+05 1.030506e+05 1.030506e+05 1.029193e+05 1.028892e+05 1.027720e+05 1.027720e+05 1.033555e+05 1.033555e+05 1.032445e+05 1.032445e+05 1.030899e+05 1.030120e+05 1.028121e+05 1.027529e+05 1.026087e+05 1.026087e+05 1.024816e+05 1.025186e+05 1.034892e+05 1.034892e+05 1.027715e+05 1.026150e+05 1.026150e+05 1.027066e+05 1.026010e+05 1.025696e+05 1.025371e+05 1.025371e+05 1.025371e+05 1.025544e+05 1.025544e+05 1.025204e+05 1.025279e+05 1.025279e+05 1.025279e+05 1.025963e+05 1.025963e+05 1.025016e+05 1.025281e+05 1.025281e+05 1.024961e+05 1.025071e+05 1.025071e+05 1.024611e+05 1.025049e+05 1.025012e+05 1.025099e+05 1.025099e+05 1.025099e+05 1.025322e+05 1.025435e+05 1.024540e+05 1.025189e+05 1.031318e+05 1.024624e+05 1.024450e+05 1.024883e+05 1.024946e+05 1.032330e+05 1.033472e+05 1.033472e+05 1.033808e+05 1.033808e+05 1.034447e+05 1.034447e+05 1.034447e+05 1.034935e+05 1.035244e+05 1.035244e+05 1.035244e+05 1.035946e+05 1.025015e+05 1.025099e+05 1.025099e+05 1.025099e+05 1.025395e+05 1.025391e+05 1.025473e+05 1.027347e+05 1.025491e+05 1.025673e+05 1.025704e+05 1.025728e+05 1.025866e+05 1.025789e+05 1.025605e+05 1.025217e+05 1.025336e+05 1.025235e+05 1.025235e+05 1.025087e+05 1.025087e+05 1.025382e+05 1.025228e+05 1.025018e+05 1.025062e+05 1.032017e+05 1.033012e+05 1.034998e+05 1.036519e+05 1.036673e+05 1.036807e+05 1.036672e+05 1.036601e+05 1.036664e+05 1.036625e+05 1.036543e+05 1.036617e+05 1.036583e+05 1.036392e+05 1.036235e+05 1.024607e+05 1.024607e+05 1.024795e+05 1.024795e+05 1.024810e+05 1.024916e+05 1.025015e+05 1.025015e+05 1.025015e+05 1.025011e+05 1.025007e+05 1.025007e+05 1.024732e+05 1.024732e+05 1.024732e+05 1.025674e+05 1.025674e+05 1.025674e+05 1.025816e+05 1.025816e+05 1.024708e+05 1.024708e+05 1.024708e+05 1.024949e+05 1.024607e+05 1.024785e+05 1.024785e+05 1.024960e+05 1.025618e+05 1.025618e+05 1.036429e+05 1.036429e+05 1.036429e+05 1.036823e+05 1.036823e+05 1.024854e+05 1.025070e+05 1.025070e+05 1.036038e+05 1.036038e+05 1.036345e+05 1.034296e+05 1.034296e+05 1.034296e+05 1.030733e+05 1.030733e+05 1.030733e+05 1.029633e+05 1.029633e+05 1.025180e+05 1.036029e+05 1.036029e+05 1.036029e+05 1.035805e+05 1.036581e+05 1.036581e+05 1.036581e+05 1.036441e+05 1.036479e+05 1.036159e+05 1.036159e+05 1.036159e+05 1.036798e+05 1.035732e+05 1.035732e+05 1.035732e+05 1.036445e+05 1.032157e+05 1.032842e+05 1.032157e+05 1.032157e+05 1.025726e+05 1.025726e+05 1.024685e+05 1.034214e+05 1.034214e+05 1.035894e+05 1.036392e+05 1.036957e+05 1.036957e+05 1.036445e+05 1.036369e+05 1.036195e+05 1.036490e+05 1.036506e+05 1.036245e+05 1.036245e+05 1.035977e+05 1.036188e+05 1.036224e+05 1.035977e+05 1.036279e+05 1.035890e+05 1.035890e+05 1.035951e+05 1.035951e+05 1.035863e+05 1.035872e+05 1.036039e+05 1.035882e+05 1.035882e+05 1.035681e+05 1.035961e+05 1.035463e+05 1.035180e+05 1.035180e+05 1.032842e+05 1.031869e+05 1.031869e+05 1.031242e+05 1.031242e+05 1.029920e+05 1.030146e+05 1.028639e+05 1.025961e+05 1.024685e+05 1.024685e+05 1.025222e+05 1.025222e+05 1.025222e+05 1.025246e+05 1.024850e+05 1.025273e+05 1.025273e+05 1.025273e+05 1.025398e+05 1.025734e+05 1.025734e+05 1.025734e+05 1.025646e+05 1.025538e+05 1.026813e+05 1.026813e+05 1.026813e+05 1.027115e+05 1.028217e+05 1.028217e+05 1.028217e+05 1.028151e+05 1.027847e+05 1.026984e+05 1.026984e+05 1.027321e+05 1.030145e+05 1.030145e+05 1.030145e+05 1.030719e+05 1.030719e+05 1.029927e+05 1.029927e+05 1.029927e+05 1.025835e+05 1.025835e+05 1.029233e+05 1.029233e+05 1.029233e+05 1.028998e+05 1.028998e+05 1.032950e+05 1.032950e+05 1.032950e+05 1.031461e+05 1.031461e+05 1.031461e+05 1.028928e+05 1.028928e+05 1.028928e+05 1.025834e+05 1.031292e+05 1.031035e+05 1.029407e+05 1.029233e+05 1.032604e+05 1.031646e+05 1.031646e+05 1.028607e+05 1.028607e+05 1.029234e+05 1.028546e+05 1.030302e+05 1.030302e+05 1.030302e+05 1.032769e+05 1.034214e+05 1.028959e+05 1.027678e+05 1.027678e+05 1.027678e+05 1.029940e+05 1.028412e+05 1.027578e+05 1.027186e+05 1.026748e+05 1.027864e+05 1.026569e+05 1.026456e+05 1.026444e+05 1.026444e+05 1.024999e+05 1.034459e+05 1.034459e+05 1.031281e+05 1.028048e+05 1.028048e+05 1.030366e+05 1.035212e+05 1.027215e+05 1.027215e+05 1.026101e+05 1.026101e+05 1.026101e+05 1.029504e+05 1.031724e+05 1.026446e+05 1.026901e+05 1.026222e+05 1.025869e+05 1.025970e+05 1.025970e+05 1.025970e+05 1.025317e+05 1.025317e+05 1.025857e+05 1.025743e+05 1.025743e+05 1.025425e+05 1.025660e+05 1.025180e+05 1.025229e+05 1.025229e+05 1.024996e+05 1.024964e+05 1.031309e+05 1.034101e+05 1.034101e+05 1.034999e+05 1.034999e+05 1.033215e+05 1.024797e+05 1.028070e+05 1.031052e+05 1.032185e+05 1.032210e+05 1.032725e+05 1.032725e+05 1.033449e+05 1.033449e+05 1.033449e+05 1.034185e+05 1.034998e+05 1.035208e+05 1.035338e+05 1.035338e+05 1.035511e+05 1.036084e+05 1.026352e+05 1.026890e+05 1.032653e+05 1.035575e+05 1.027184e+05 1.027026e+05 1.026188e+05 1.025872e+05 1.026501e+05 1.025942e+05 1.025439e+05 1.026480e+05 1.025506e+05 1.025506e+05 1.025515e+05 1.025297e+05 1.025117e+05 1.025114e+05 1.025114e+05 1.025046e+05 1.025289e+05 1.025289e+05 1.032069e+05 1.033071e+05 1.034174e+05 1.035672e+05 1.034486e+05 1.035130e+05 1.033517e+05 1.035519e+05 1.034879e+05 1.025039e+05 1.024795e+05 1.036673e+05 1.036740e+05 1.036630e+05 1.036638e+05 1.036700e+05 1.036460e+05 1.036480e+05 1.036400e+05 1.036287e+05 1.036115e+05 1.035899e+05 1.035756e+05 1.035594e+05 1.035339e+05 1.035298e+05 1.035425e+05 1.035045e+05 1.034888e+05 1.034837e+05 1.034630e+05 1.034568e+05 1.034300e+05 1.034744e+05 1.033811e+05 1.033757e+05 1.033340e+05 1.033015e+05 1.032646e+05 1.032350e+05 1.032076e+05 1.031641e+05 1.031517e+05 1.030888e+05 1.030567e+05 1.030229e+05 1.029631e+05 1.029305e+05 1.028750e+05 1.028260e+05 1.027919e+05 1.027808e+05 1.027446e+05 1.026849e+05 1.026190e+05 1.026066e+05 1.025664e+05 1.025302e+05 1.025142e+05 1.024689e+05 1.024278e+05 1.023862e+05 1.023150e+05 1.022567e+05 1.021802e+05 1.021506e+05 1.020918e+05 1.020260e+05 1.019894e+05 1.019349e+05 1.018996e+05 1.018803e+05 1.018255e+05 1.017873e+05 1.017477e+05 1.017623e+05 1.016729e+05 1.016023e+05 1.015822e+05 1.015469e+05 1.014839e+05 1.014126e+05 1.014021e+05 1.013409e+05 1.012996e+05 1.012473e+05 1.012357e+05 1.011727e+05 1.011587e+05 1.011182e+05 1.010926e+05 1.010630e+05 1.010240e+05 1.009760e+05 1.009501e+05 1.009311e+05 1.009055e+05 1.008824e+05 1.008627e+05 1.008523e+05 1.008334e+05 1.007923e+05 1.007825e+05 1.007427e+05 1.007408e+05 1.007343e+05 1.007058e+05 1.007259e+05 1.007208e+05 1.007115e+05 1.007024e+05 1.007124e+05 1.007128e+05 1.006961e+05 1.006934e+05 1.006787e+05 1.006996e+05 1.006912e+05 1.006683e+05 1.007053e+05 1.006883e+05 1.007123e+05 1.007290e+05 1.007200e+05 1.007353e+05 1.007479e+05 1.007379e+05 1.007766e+05 1.007875e+05 1.008029e+05 1.008158e+05 1.008415e+05 1.008631e+05 1.008989e+05 1.008989e+05 1.024076e+05 1.024076e+05 1.024732e+05 1.024795e+05 1.024853e+05 1.024946e+05 1.025009e+05 1.025009e+05 1.025026e+05 1.025046e+05 1.025117e+05 1.025117e+05 1.025219e+05 1.025219e+05 1.025439e+05 1.025538e+05 1.025712e+05 1.025635e+05 1.025872e+05 1.026352e+05 1.026352e+05 1.026890e+05 1.026890e+05 1.027184e+05 1.027111e+05 1.028048e+05 1.028070e+05 1.028052e+05 1.028925e+05 1.029245e+05 1.029233e+05 1.029522e+05 1.030348e+05 1.030719e+05 1.030904e+05 1.031818e+05 1.032185e+05 1.032185e+05 1.032060e+05 1.033034e+05 1.033034e+05 1.034482e+05 1.033651e+05 1.033651e+05 1.034459e+05 1.035208e+05 1.035208e+05 1.035338e+05 1.035575e+05 1.035716e+05 1.035716e+05 1.036319e+05 1.036195e+05 1.036369e+05 1.036754e+05 1.036345e+05 1.024025e+05 1.026775e+05 1.026775e+05 1.026775e+05 1.027219e+05 1.024691e+05 1.024691e+05 1.024691e+05 1.025099e+05 1.025099e+05 1.027207e+05 1.027207e+05 1.027207e+05 1.027385e+05 1.026857e+05 1.024267e+05 1.025650e+05 1.025650e+05 1.025877e+05 1.026647e+05 1.026647e+05 1.026647e+05 1.026649e+05 1.026444e+05 1.020054e+05 1.020054e+05 1.020054e+05 1.019731e+05 1.024520e+05 1.024520e+05 1.024520e+05 1.024595e+05 1.024618e+05 1.024618e+05 1.026558e+05 1.026558e+05 1.026061e+05 1.025534e+05 1.024025e+05 1.024025e+05 1.024891e+05 1.024891e+05 1.024891e+05 1.024790e+05 1.024782e+05 1.024782e+05 1.024687e+05 1.025198e+05 1.025198e+05 1.025198e+05 1.025475e+05 1.025636e+05 1.025572e+05 1.025809e+05 1.024664e+05 1.024664e+05 1.024664e+05 1.024458e+05 1.024518e+05 1.024217e+05 1.023306e+05 1.024217e+05 1.029576e+05 1.029576e+05 1.029576e+05 1.030648e+05 1.030648e+05 1.030648e+05 1.030034e+05 1.016000e+05 1.015963e+05 1.016000e+05 1.016000e+05 1.020991e+05 1.020991e+05 1.020991e+05 1.020640e+05 1.026305e+05 1.026305e+05 1.026305e+05 1.026490e+05 1.030222e+05 1.030222e+05 1.030222e+05 1.029872e+05 1.029872e+05 1.011341e+05 1.011341e+05 1.011341e+05 1.011370e+05 1.010877e+05 1.010877e+05 1.010877e+05 1.011075e+05 1.011075e+05 1.035247e+05 1.035247e+05 1.035247e+05 1.035389e+05 1.012394e+05 1.012394e+05 1.012394e+05 1.013142e+05 1.013142e+05 1.011493e+05 1.012311e+05 1.028262e+05 1.028262e+05 1.028262e+05 1.028334e+05 1.030851e+05 1.030851e+05 1.030851e+05 1.031378e+05 1.031378e+05 1.012158e+05 1.012158e+05 1.012158e+05 1.012366e+05 1.029122e+05 1.029122e+05 1.029122e+05 1.029523e+05 1.007353e+05 1.018022e+05 1.018022e+05 1.018022e+05 1.013086e+05 1.013086e+05 1.013086e+05 1.012839e+05 1.010428e+05 1.010428e+05 1.010428e+05 1.009658e+05 1.007208e+05 1.007785e+05 1.007785e+05 1.007785e+05 1.007721e+05 1.009592e+05 1.009592e+05 1.009592e+05 1.010478e+05 1.010478e+05 1.012311e+05 1.012311e+05 1.011493e+05 1.031455e+05 1.031455e+05 1.031455e+05 1.031355e+05 1.031355e+05 1.013715e+05 1.014260e+05 1.014260e+05 1.028376e+05 1.028376e+05 1.028376e+05 1.028299e+05 1.028299e+05 1.029376e+05 1.029376e+05 1.029376e+05 1.029352e+05 1.018627e+05 1.017979e+05 1.018627e+05 1.018627e+05 1.021272e+05 1.025365e+05 1.025365e+05 1.025365e+05 1.024633e+05 1.025111e+05 1.025650e+05 1.025650e+05 1.024058e+05 1.024058e+05 1.024404e+05 1.024404e+05 1.027048e+05 1.027048e+05 1.027048e+05 1.027337e+05 1.027337e+05 1.024592e+05 1.024592e+05 1.024592e+05 1.024949e+05 1.025065e+05 1.024633e+05 1.024551e+05 1.028111e+05 1.028111e+05 1.028111e+05 1.028031e+05 1.028645e+05 1.028645e+05 1.028645e+05 1.028281e+05 1.024009e+05 1.024009e+05 1.024009e+05 1.031829e+05 1.031829e+05 1.031829e+05 1.019121e+05 1.019121e+05 1.019121e+05 1.032980e+05 1.032980e+05 1.032980e+05 1.014624e+05 1.014624e+05 1.014624e+05 1.016068e+05 1.015217e+05 1.016544e+05 1.016544e+05 1.016544e+05 1.014799e+05 1.014799e+05 1.015549e+05 1.018372e+05 1.018372e+05 1.018372e+05 1.018682e+05 1.015075e+05 1.015075e+05 1.015075e+05 1.015068e+05 1.015146e+05 1.015146e+05 1.035565e+05 1.035565e+05 1.035565e+05 1.035349e+05 1.013353e+05 1.013353e+05 1.013353e+05 1.013789e+05 1.012392e+05 1.012392e+05 1.012392e+05 1.012874e+05 1.031773e+05 1.031773e+05 1.031773e+05 1.018274e+05 1.018274e+05 1.018274e+05 1.018855e+05 1.011302e+05 1.011302e+05 1.011302e+05 1.011691e+05 1.009528e+05 1.009528e+05 1.009528e+05 1.010517e+05 1.012522e+05 1.012522e+05 1.012522e+05 1.012681e+05 1.