<?xml version="1.0"?>
 <VTKFile type="UnstructuredGrid" version="1.0" byte_order="LittleEndian" header_type="UInt64">
  <UnstructuredGrid>
    <FieldData>
     <DataArray type="Float64" Name="TimeValue" NumberOfTuples="1" format="ascii">
3e-05
     </DataArray>
    </FieldData>
   <Piece NumberOfPoints="3632" NumberOfCells="3379">
    <PointData>
     <DataArray type="Float64" Name="pointP" format="ascii">
1.036169e+05 1.036169e+05 1.036129e+05 1.035902e+05 1.036180e+05 1.035625e+05 1.035402e+05 1.035199e+05 1.035353e+05 1.034590e+05 1.034625e+05 1.034645e+05 1.034191e+05 1.033889e+05 1.033750e+05 1.033429e+05 1.032855e+05 1.032354e+05 1.032290e+05 1.032254e+05 1.031307e+05 1.031047e+05 1.030631e+05 1.030146e+05 1.029863e+05 1.029509e+05 1.029391e+05 1.028801e+05 1.028303e+05 1.027975e+05 1.027556e+05 1.027241e+05 1.026890e+05 1.026346e+05 1.026098e+05 1.025285e+05 1.024716e+05 1.024388e+05 1.023983e+05 1.023622e+05 1.023233e+05 1.022871e+05 1.022493e+05 1.021916e+05 1.021457e+05 1.021081e+05 1.020713e+05 1.020263e+05 1.019937e+05 1.019538e+05 1.018943e+05 1.018588e+05 1.018240e+05 1.017705e+05 1.017689e+05 1.016945e+05 1.016240e+05 1.015954e+05 1.015532e+05 1.015188e+05 1.014865e+05 1.014248e+05 1.013730e+05 1.013503e+05 1.013258e+05 1.012769e+05 1.012321e+05 1.012135e+05 1.011861e+05 1.011363e+05 1.010821e+05 1.010576e+05 1.010447e+05 1.010092e+05 1.009728e+05 1.009560e+05 1.009287e+05 1.009196e+05 1.009062e+05 1.008593e+05 1.008472e+05 1.008231e+05 1.008046e+05 1.007986e+05 1.007603e+05 1.007550e+05 1.007532e+05 1.007515e+05 1.007186e+05 1.007246e+05 1.007207e+05 1.007099e+05 1.007335e+05 1.007060e+05 1.007241e+05 1.007300e+05 1.007359e+05 1.007275e+05 1.007261e+05 1.007297e+05 1.007306e+05 1.007488e+05 1.007628e+05 1.007560e+05 1.007430e+05 1.007635e+05 1.007683e+05 1.007587e+05 1.008211e+05 1.008054e+05 1.008433e+05 1.008635e+05 1.008747e+05 1.009099e+05 1.009099e+05 1.009272e+05 1.009602e+05 1.009558e+05 1.010144e+05 1.010488e+05 1.010551e+05 1.010741e+05 1.011171e+05 1.011243e+05 1.011741e+05 1.012089e+05 1.012127e+05 1.012346e+05 1.012997e+05 1.013014e+05 1.013340e+05 1.013904e+05 1.013787e+05 1.014723e+05 1.014869e+05 1.015506e+05 1.015566e+05 1.015900e+05 1.016410e+05 1.016394e+05 1.016882e+05 1.017421e+05 1.017517e+05 1.017778e+05 1.018282e+05 1.018201e+05 1.018913e+05 1.018992e+05 1.019666e+05 1.019705e+05 1.020058e+05 1.020521e+05 1.020465e+05 1.020437e+05 1.020854e+05 1.021388e+05 1.021878e+05 1.022342e+05 1.022186e+05 1.022489e+05 1.023110e+05 1.023758e+05 1.023767e+05 1.023752e+05 1.024065e+05 1.024587e+05 1.024983e+05 1.024632e+05 1.025212e+05 1.025210e+05 1.025803e+05 1.025894e+05 1.026175e+05 1.026557e+05 1.026603e+05 1.026796e+05 1.027073e+05 1.027250e+05 1.027426e+05 1.027789e+05 1.027711e+05 1.024588e+05 1.024588e+05 1.024588e+05 1.024277e+05 1.024277e+05 1.024277e+05 1.025001e+05 1.024484e+05 1.024519e+05 1.024554e+05 1.025692e+05 1.025692e+05 1.025692e+05 1.025043e+05 1.025164e+05 1.025164e+05 1.025164e+05 1.024607e+05 1.025124e+05 1.031239e+05 1.031239e+05 1.031239e+05 1.031615e+05 1.030172e+05 1.030172e+05 1.030172e+05 1.029457e+05 1.013463e+05 1.013463e+05 1.013463e+05 1.013344e+05 1.013652e+05 1.014173e+05 1.022222e+05 1.022222e+05 1.022222e+05 1.021788e+05 1.021788e+05 1.024541e+05 1.024541e+05 1.024541e+05 1.024600e+05 1.023529e+05 1.023529e+05 1.023529e+05 1.023010e+05 1.023010e+05 1.035387e+05 1.035387e+05 1.035387e+05 1.010693e+05 1.010693e+05 1.010693e+05 1.011157e+05 1.010427e+05 1.010427e+05 1.010427e+05 1.019488e+05 1.019488e+05 1.019488e+05 1.019097e+05 1.013606e+05 1.013606e+05 1.014405e+05 1.014405e+05 1.010751e+05 1.010751e+05 1.011089e+05 1.020666e+05 1.020666e+05 1.020666e+05 1.020992e+05 1.020992e+05 1.024650e+05 1.024650e+05 1.024650e+05 1.024510e+05 1.024510e+05 1.025233e+05 1.025233e+05 1.025233e+05 1.024691e+05 1.024691e+05 1.030982e+05 1.030982e+05 1.013092e+05 1.013092e+05 1.013092e+05 1.013759e+05 1.008500e+05 1.008500e+05 1.008500e+05 1.008293e+05 1.009021e+05 1.012493e+05 1.012493e+05 1.012493e+05 1.010945e+05 1.010945e+05 1.010964e+05 1.025285e+05 1.025480e+05 1.025480e+05 1.026557e+05 1.026592e+05 1.026592e+05 1.007807e+05 1.011741e+05 1.012123e+05 1.025302e+05 1.025173e+05 1.025173e+05 1.025173e+05 1.024993e+05 1.025160e+05 1.024729e+05 1.024729e+05 1.024729e+05 1.024866e+05 1.024866e+05 1.023201e+05 1.023201e+05 1.023201e+05 1.023207e+05 1.023093e+05 1.023093e+05 1.023093e+05 1.023415e+05 1.031268e+05 1.031645e+05 1.031266e+05 1.032192e+05 1.032192e+05 1.017241e+05 1.017241e+05 1.017241e+05 1.018085e+05 1.020728e+05 1.020728e+05 1.020728e+05 1.022058e+05 1.022058e+05 1.021821e+05 1.020947e+05 1.020947e+05 1.020947e+05 1.021569e+05 1.017331e+05 1.017331e+05 1.017331e+05 1.017207e+05 1.017851e+05 1.018522e+05 1.018522e+05 1.018522e+05 1.019295e+05 1.028054e+05 1.028322e+05 1.014021e+05 1.014021e+05 1.014021e+05 1.014111e+05 1.020368e+05 1.020368e+05 1.020368e+05 1.019853e+05 1.022458e+05 1.022458e+05 1.022458e+05 1.022522e+05 1.022522e+05 1.020011e+05 1.020011e+05 1.020011e+05 1.020182e+05 1.018305e+05 1.018305e+05 1.018305e+05 1.018413e+05 1.021332e+05 1.021332e+05 1.021332e+05 1.021089e+05 1.012755e+05 1.012755e+05 1.011832e+05 1.008726e+05 1.008726e+05 1.010005e+05 1.010005e+05 1.010005e+05 1.008396e+05 1.008396e+05 1.008396e+05 1.007578e+05 1.026830e+05 1.026830e+05 1.026830e+05 1.026959e+05 1.026959e+05 1.030296e+05 1.030296e+05 1.030296e+05 1.029668e+05 1.029668e+05 1.008746e+05 1.015914e+05 1.015914e+05 1.016171e+05 1.027856e+05 1.027856e+05 1.027856e+05 1.027777e+05 1.021373e+05 1.021373e+05 1.021862e+05 1.021862e+05 1.023561e+05 1.023561e+05 1.024071e+05 1.019855e+05 1.019855e+05 1.023019e+05 1.023019e+05 1.023471e+05 1.023471e+05 1.018341e+05 1.018341e+05 1.018341e+05 1.018508e+05 1.009070e+05 1.009872e+05 1.012531e+05 1.012531e+05 1.012531e+05 1.011848e+05 1.014456e+05 1.014456e+05 1.014456e+05 1.014262e+05 1.014262e+05 1.026529e+05 1.026529e+05 1.026529e+05 1.026799e+05 1.026799e+05 1.012861e+05 1.013436e+05 1.034332e+05 1.034332e+05 1.034332e+05 1.034529e+05 1.023997e+05 1.023997e+05 1.023997e+05 1.023629e+05 1.023629e+05 1.024330e+05 1.024108e+05 1.012931e+05 1.012931e+05 1.012931e+05 1.014094e+05 1.014094e+05 1.013082e+05 1.012016e+05 1.012016e+05 1.018039e+05 1.018039e+05 1.018039e+05 1.018923e+05 1.018923e+05 1.017228e+05 1.017228e+05 1.017228e+05 1.018381e+05 1.018381e+05 1.023356e+05 1.023356e+05 1.023635e+05 1.023635e+05 1.014742e+05 1.014742e+05 1.014801e+05 1.023480e+05 1.023480e+05 1.024080e+05 1.024080e+05 1.019329e+05 1.019329e+05 1.019329e+05 1.019417e+05 1.019477e+05 1.019477e+05 1.019477e+05 1.020103e+05 1.020103e+05 1.030674e+05 1.031247e+05 1.029186e+05 1.024898e+05 1.024898e+05 1.024898e+05 1.024842e+05 1.024842e+05 1.024780e+05 1.024780e+05 1.025030e+05 1.025137e+05 1.025137e+05 1.024727e+05 1.024845e+05 1.024609e+05 1.024609e+05 1.024609e+05 1.024291e+05 1.024291e+05 1.024291e+05 1.025718e+05 1.025718e+05 1.025718e+05 1.023938e+05 1.023585e+05 1.023941e+05 1.025142e+05 1.025142e+05 1.025142e+05 1.024566e+05 1.026719e+05 1.026719e+05 1.026719e+05 1.021897e+05 1.021897e+05 1.021897e+05 1.021809e+05 1.021585e+05 1.021585e+05 1.021585e+05 1.015341e+05 1.015341e+05 1.015341e+05 1.017694e+05 1.017694e+05 1.017694e+05 1.023427e+05 1.023427e+05 1.023998e+05 1.019195e+05 1.017129e+05 1.017129e+05 1.028339e+05 1.028339e+05 1.028339e+05 1.028443e+05 1.028443e+05 1.016007e+05 1.016007e+05 1.028058e+05 1.028142e+05 1.028322e+05 1.032680e+05 1.032680e+05 1.032680e+05 1.032693e+05 1.014838e+05 1.014838e+05 1.014838e+05 1.010698e+05 1.011255e+05 1.011164e+05 1.012615e+05 1.012615e+05 1.012615e+05 1.016420e+05 1.016420e+05 1.016420e+05 1.017061e+05 1.016714e+05 1.011148e+05 1.011148e+05 1.011148e+05 1.033841e+05 1.033841e+05 1.033841e+05 1.034153e+05 1.016160e+05 1.016160e+05 1.016160e+05 1.016349e+05 1.033543e+05 1.033543e+05 1.033543e+05 1.011655e+05 1.012104e+05 1.012104e+05 1.008001e+05 1.008001e+05 1.008001e+05 1.007972e+05 1.008694e+05 1.027600e+05 1.027600e+05 1.027538e+05 1.028148e+05 1.027470e+05 1.020370e+05 1.020370e+05 1.013137e+05 1.013137e+05 1.013137e+05 1.013484e+05 1.024767e+05 1.024767e+05 1.024767e+05 1.025439e+05 1.013503e+05 1.013885e+05 1.013885e+05 1.008650e+05 1.008650e+05 1.008650e+05 1.008527e+05 1.021891e+05 1.007506e+05 1.007506e+05 1.007842e+05 1.022225e+05 1.022225e+05 1.022225e+05 1.030574e+05 1.030574e+05 1.028002e+05 1.028002e+05 1.028002e+05 1.028364e+05 1.032239e+05 1.032239e+05 1.032239e+05 1.032419e+05 1.032419e+05 1.032058e+05 1.025926e+05 1.025926e+05 1.007422e+05 1.014767e+05 1.014767e+05 1.015263e+05 1.008045e+05 1.036076e+05 1.036139e+05 1.036076e+05 1.036076e+05 1.015764e+05 1.015764e+05 1.015764e+05 1.016251e+05 1.016251e+05 1.025286e+05 1.025286e+05 1.024492e+05 1.024492e+05 1.021483e+05 1.021483e+05 1.021483e+05 1.021878e+05 1.021878e+05 1.013050e+05 1.013050e+05 1.013050e+05 1.013960e+05 1.013960e+05 1.034087e+05 1.034087e+05 1.034087e+05 1.033836e+05 1.033836e+05 1.018126e+05 1.018126e+05 1.018126e+05 1.015859e+05 1.027395e+05 1.027395e+05 1.027395e+05 1.027098e+05 1.027098e+05 1.023548e+05 1.023548e+05 1.023548e+05 1.023069e+05 1.023069e+05 1.019422e+05 1.019422e+05 1.019422e+05 1.019507e+05 1.019507e+05 1.033043e+05 1.033043e+05 1.033043e+05 1.020696e+05 1.020696e+05 1.020696e+05 1.019916e+05 1.019916e+05 1.020557e+05 1.020697e+05 1.024766e+05 1.024766e+05 1.024766e+05 1.025113e+05 1.024305e+05 1.024305e+05 1.023932e+05 1.024757e+05 1.024757e+05 1.024410e+05 1.024410e+05 1.024845e+05 1.025183e+05 1.025862e+05 1.026046e+05 1.025862e+05 1.025862e+05 1.024519e+05 1.024519e+05 1.024778e+05 1.026445e+05 1.026915e+05 1.034211e+05 1.034211e+05 1.034211e+05 1.033822e+05 1.034099e+05 1.015555e+05 1.015555e+05 1.015555e+05 1.015844e+05 1.022136e+05 1.018099e+05 1.028071e+05 1.028071e+05 1.028071e+05 1.028199e+05 1.017807e+05 1.017265e+05 1.017364e+05 1.009556e+05 1.009556e+05 1.009850e+05 1.024253e+05 1.022848e+05 1.022848e+05 1.023027e+05 1.022691e+05 1.014398e+05 1.014459e+05 1.015250e+05 1.008874e+05 1.008874e+05 1.008874e+05 1.008826e+05 1.020171e+05 1.020171e+05 1.020171e+05 1.020023e+05 1.007551e+05 1.018913e+05 1.019418e+05 1.019418e+05 1.011935e+05 1.011935e+05 1.011935e+05 1.008380e+05 1.027249e+05 1.027249e+05 1.008325e+05 1.008325e+05 1.008325e+05 1.013827e+05 1.023952e+05 1.023952e+05 1.008798e+05 1.009481e+05 1.009481e+05 1.009481e+05 1.009524e+05 1.012969e+05 1.026209e+05 1.026209e+05 1.025658e+05 1.021878e+05 1.007630e+05 1.007630e+05 1.017919e+05 1.017919e+05 1.017919e+05 1.017996e+05 1.023808e+05 1.024767e+05 1.024767e+05 1.012441e+05 1.020909e+05 1.020909e+05 1.021096e+05 1.026568e+05 1.026568e+05 1.024606e+05 1.018092e+05 1.010488e+05 1.011154e+05 1.011154e+05 1.034386e+05 1.034386e+05 1.011724e+05 1.028987e+05 1.028987e+05 1.010228e+05 1.010228e+05 1.010228e+05 1.010061e+05 1.015512e+05 1.015512e+05 1.012820e+05 1.012820e+05 1.025218e+05 1.026181e+05 1.010471e+05 1.009755e+05 1.018282e+05 1.018745e+05 1.018745e+05 1.007515e+05 1.008007e+05 1.008007e+05 1.026002e+05 1.026002e+05 1.025803e+05 1.025803e+05 1.021731e+05 1.008156e+05 1.034673e+05 1.034673e+05 1.035104e+05 1.035292e+05 1.035292e+05 1.023233e+05 1.023114e+05 1.014907e+05 1.014907e+05 1.014907e+05 1.031119e+05 1.031119e+05 1.031119e+05 1.030969e+05 1.011081e+05 1.011081e+05 1.015318e+05 1.025344e+05 1.025344e+05 1.009269e+05 1.014036e+05 1.008066e+05 1.008066e+05 1.008066e+05 1.020963e+05 1.020963e+05 1.022493e+05 1.022338e+05 1.022338e+05 1.009062e+05 1.009316e+05 1.008231e+05 1.008369e+05 1.027287e+05 1.033529e+05 1.033529e+05 1.016354e+05 1.016354e+05 1.016354e+05 1.016631e+05 1.031781e+05 1.013220e+05 1.009937e+05 1.009937e+05 1.009652e+05 1.011635e+05 1.011635e+05 1.024040e+05 1.024040e+05 1.024312e+05 1.012769e+05 1.013481e+05 1.013481e+05 1.008223e+05 1.033934e+05 1.033934e+05 1.033769e+05 1.033769e+05 1.008202e+05 1.008202e+05 1.008202e+05 1.017338e+05 1.017338e+05 1.017338e+05 1.008081e+05 1.008081e+05 1.025947e+05 1.033531e+05 1.033038e+05 1.032616e+05 1.023788e+05 1.033672e+05 1.022404e+05 1.009477e+05 1.010213e+05 1.016879e+05 1.016879e+05 1.018778e+05 1.016027e+05 1.015404e+05 1.015973e+05 1.008236e+05 1.008236e+05 1.036169e+05 1.036133e+05 1.035659e+05 1.035659e+05 1.035659e+05 1.035334e+05 1.027242e+05 1.026741e+05 1.027281e+05 1.027888e+05 1.009596e+05 1.009596e+05 1.009380e+05 1.024544e+05 1.021002e+05 1.018793e+05 1.018014e+05 1.017480e+05 1.017480e+05 1.017480e+05 1.008570e+05 1.010945e+05 1.010945e+05 1.010945e+05 1.036013e+05 1.027548e+05 1.033801e+05 1.033601e+05 1.012343e+05 1.013601e+05 1.035122e+05 1.035317e+05 1.025489e+05 1.025635e+05 1.025635e+05 1.011729e+05 1.015040e+05 1.022026e+05 1.023970e+05 1.026485e+05 1.026474e+05 1.026474e+05 1.019808e+05 1.019808e+05 1.020364e+05 1.020364e+05 1.011353e+05 1.019516e+05 1.008189e+05 1.028458e+05 1.029300e+05 1.028491e+05 1.008665e+05 1.008356e+05 1.009408e+05 1.009408e+05 1.028052e+05 1.028052e+05 1.028273e+05 1.028273e+05 1.009174e+05 1.009386e+05 1.013885e+05 1.013885e+05 1.013050e+05 1.010091e+05 1.010091e+05 1.010834e+05 1.010834e+05 1.012463e+05 1.012463e+05 1.028074e+05 1.034052e+05 1.034052e+05 1.025107e+05 1.025107e+05 1.025107e+05 1.021216e+05 1.021067e+05 1.021067e+05 1.016937e+05 1.016937e+05 1.024328e+05 1.023774e+05 1.022464e+05 1.031017e+05 1.027625e+05 1.025879e+05 1.025879e+05 1.009006e+05 1.009006e+05 1.009008e+05 1.025220e+05 1.025220e+05 1.014064e+05 1.014064e+05 1.029615e+05 1.029615e+05 1.010152e+05 1.035070e+05 1.015783e+05 1.015783e+05 1.015629e+05 1.009033e+05 1.009543e+05 1.022802e+05 1.020099e+05 1.011477e+05 1.033212e+05 1.027451e+05 1.011376e+05 1.011376e+05 1.011376e+05 1.008873e+05 1.008873e+05 1.008873e+05 1.009333e+05 1.009709e+05 1.009709e+05 1.009709e+05 1.009161e+05 1.035174e+05 1.035127e+05 1.018675e+05 1.019500e+05 1.019500e+05 1.010246e+05 1.010246e+05 1.010246e+05 1.021543e+05 1.020396e+05 1.032506e+05 1.036163e+05 1.036163e+05 1.035806e+05 1.009541e+05 1.015183e+05 1.015183e+05 1.015792e+05 1.012456e+05 1.012456e+05 1.034845e+05 1.026056e+05 1.012011e+05 1.011868e+05 1.016296e+05 1.010003e+05 1.010742e+05 1.030490e+05 1.009852e+05 1.009852e+05 1.009852e+05 1.015146e+05 1.015146e+05 1.022601e+05 1.023114e+05 1.023114e+05 1.029712e+05 1.029043e+05 1.019477e+05 1.018877e+05 1.030687e+05 1.030687e+05 1.030687e+05 1.030671e+05 1.018873e+05 1.018873e+05 1.018096e+05 1.026531e+05 1.026531e+05 1.012420e+05 1.012420e+05 1.012420e+05 1.011021e+05 1.013054e+05 1.031964e+05 1.031964e+05 1.031964e+05 1.031479e+05 1.032129e+05 1.016846e+05 1.016846e+05 1.017604e+05 1.017604e+05 1.019783e+05 1.023984e+05 1.023984e+05 1.009410e+05 1.009633e+05 1.022154e+05 1.022154e+05 1.017438e+05 1.017757e+05 1.027949e+05 1.036139e+05 1.036001e+05 1.013141e+05 1.013478e+05 1.034591e+05 1.010790e+05 1.010790e+05 1.011798e+05 1.011798e+05 1.014233e+05 1.009244e+05 1.009143e+05 1.018876e+05 1.011949e+05 1.018477e+05 1.018701e+05 1.025179e+05 1.025179e+05 1.035595e+05 1.035595e+05 1.035595e+05 1.035785e+05 1.025924e+05 1.025924e+05 1.026359e+05 1.010834e+05 1.011610e+05 1.017126e+05 1.028020e+05 1.027305e+05 1.027305e+05 1.027305e+05 1.027566e+05 1.010754e+05 1.036129e+05 1.029625e+05 1.029122e+05 1.029122e+05 1.022338e+05 1.022338e+05 1.022338e+05 1.022648e+05 1.035315e+05 1.035315e+05 1.027653e+05 1.027653e+05 1.027117e+05 1.020093e+05 1.015795e+05 1.032968e+05 1.012219e+05 1.012812e+05 1.035546e+05 1.035761e+05 1.010985e+05 1.017034e+05 1.017034e+05 1.017034e+05 1.017528e+05 1.021915e+05 1.009471e+05 1.010322e+05 1.025372e+05 1.025273e+05 1.010046e+05 1.010631e+05 1.015561e+05 1.015561e+05 1.018211e+05 1.014540e+05 1.014540e+05 1.014683e+05 1.015386e+05 1.015386e+05 1.010944e+05 1.021079e+05 1.021079e+05 1.021051e+05 1.027707e+05 1.032726e+05 1.032726e+05 1.012225e+05 1.013297e+05 1.013297e+05 1.012827e+05 1.023211e+05 1.027181e+05 1.027693e+05 1.027011e+05 1.027011e+05 1.009552e+05 1.013278e+05 1.012520e+05 1.013285e+05 1.012148e+05 1.028031e+05 1.028031e+05 1.019089e+05 1.019089e+05 1.019089e+05 1.011975e+05 1.012672e+05 1.022617e+05 1.023123e+05 1.023123e+05 1.010252e+05 1.011041e+05 1.011041e+05 1.014342e+05 1.010845e+05 1.011588e+05 1.029914e+05 1.033205e+05 1.033205e+05 1.033205e+05 1.032667e+05 1.024408e+05 1.018385e+05 1.011819e+05 1.011848e+05 1.016436e+05 1.016436e+05 1.016436e+05 1.011411e+05 1.011411e+05 1.011411e+05 1.010434e+05 1.010513e+05 1.022665e+05 1.020373e+05 1.021064e+05 1.011109e+05 1.011109e+05 1.021063e+05 1.021282e+05 1.021812e+05 1.021812e+05 1.011909e+05 1.015794e+05 1.015794e+05 1.016338e+05 1.020379e+05 1.020379e+05 1.019647e+05 1.013632e+05 1.013632e+05 1.011826e+05 1.019298e+05 1.019298e+05 1.019637e+05 1.019637e+05 1.026514e+05 1.026514e+05 1.026514e+05 1.029755e+05 1.030258e+05 1.030258e+05 1.027770e+05 1.027770e+05 1.027770e+05 1.027822e+05 1.025718e+05 1.010802e+05 1.031106e+05 1.031106e+05 1.030831e+05 1.028861e+05 1.028861e+05 1.028861e+05 1.017124e+05 1.017124e+05 1.016275e+05 1.014510e+05 1.014510e+05 1.015250e+05 1.024735e+05 1.024693e+05 1.024693e+05 1.035790e+05 1.035696e+05 1.014661e+05 1.014661e+05 1.014661e+05 1.034728e+05 1.021931e+05 1.021931e+05 1.021026e+05 1.021026e+05 1.025891e+05 1.025891e+05 1.026088e+05 1.026088e+05 1.027160e+05 1.027160e+05 1.027275e+05 1.013613e+05 1.013817e+05 1.013267e+05 1.026518e+05 1.026518e+05 1.026518e+05 1.012219e+05 1.018446e+05 1.022279e+05 1.015562e+05 1.034656e+05 1.015629e+05 1.020772e+05 1.020772e+05 1.035613e+05 1.035603e+05 1.035603e+05 1.014175e+05 1.014504e+05 1.034117e+05 1.034117e+05 1.033713e+05 1.022237e+05 1.022237e+05 1.011462e+05 1.012112e+05 1.025692e+05 1.012510e+05 1.034967e+05 1.034553e+05 1.034553e+05 1.014141e+05 1.012301e+05 1.012438e+05 1.032353e+05 1.032087e+05 1.025486e+05 1.025486e+05 1.016776e+05 1.016776e+05 1.011148e+05 1.026837e+05 1.027076e+05 1.027076e+05 1.029488e+05 1.015590e+05 1.015675e+05 1.014010e+05 1.014010e+05 1.014010e+05 1.014241e+05 1.014241e+05 1.017835e+05 1.027622e+05 1.031525e+05 1.023631e+05 1.023631e+05 1.013732e+05 1.013732e+05 1.014286e+05 1.013947e+05 1.013947e+05 1.034709e+05 1.034709e+05 1.034709e+05 1.034682e+05 1.034682e+05 1.015892e+05 1.015892e+05 1.016689e+05 1.019115e+05 1.019062e+05 1.019062e+05 1.019062e+05 1.019440e+05 1.019884e+05 1.020754e+05 1.020754e+05 1.017340e+05 1.017714e+05 1.028142e+05 1.026184e+05 1.031157e+05 1.015739e+05 1.015185e+05 1.035696e+05 1.024961e+05 1.024961e+05 1.024799e+05 1.024799e+05 1.025600e+05 1.025900e+05 1.032247e+05 1.024491e+05 1.020365e+05 1.020365e+05 1.020984e+05 1.027855e+05 1.027044e+05 1.028130e+05 1.011813e+05 1.019064e+05 1.033049e+05 1.029804e+05 1.029804e+05 1.030553e+05 1.030553e+05 1.015157e+05 1.013240e+05 1.013240e+05 1.013240e+05 1.015387e+05 1.027080e+05 1.012180e+05 1.023590e+05 1.024454e+05 1.016533e+05 1.026670e+05 1.021908e+05 1.022617e+05 1.025360e+05 1.025360e+05 1.025360e+05 1.020930e+05 1.015786e+05 1.026855e+05 1.025791e+05 1.025791e+05 1.025183e+05 1.014925e+05 1.014303e+05 1.014303e+05 1.029749e+05 1.017458e+05 1.018108e+05 1.026560e+05 1.016017e+05 1.016017e+05 1.016009e+05 1.028214e+05 1.025571e+05 1.025571e+05 1.025743e+05 1.014529e+05 1.014529e+05 1.014529e+05 1.014868e+05 1.015203e+05 1.015762e+05 1.016484e+05 1.017615e+05 1.017615e+05 1.017718e+05 1.019987e+05 1.023201e+05 1.023201e+05 1.026813e+05 1.017835e+05 1.017835e+05 1.017835e+05 1.018679e+05 1.034525e+05 1.016104e+05 1.031974e+05 1.031767e+05 1.014475e+05 1.021247e+05 1.021838e+05 1.031812e+05 1.015822e+05 1.016480e+05 1.028054e+05 1.017664e+05 1.027214e+05 1.027214e+05 1.027214e+05 1.035586e+05 1.035353e+05 1.026877e+05 1.031581e+05 1.035586e+05 1.024583e+05 1.026795e+05 1.021486e+05 1.019786e+05 1.020017e+05 1.016190e+05 1.025002e+05 1.025002e+05 1.025002e+05 1.018884e+05 1.030722e+05 1.030722e+05 1.034645e+05 1.034645e+05 1.017858e+05 1.025705e+05 1.030823e+05 1.016610e+05 1.016610e+05 1.016610e+05 1.015312e+05 1.029541e+05 1.029541e+05 1.016372e+05 1.016451e+05 1.020827e+05 1.023618e+05 1.028521e+05 1.028521e+05 1.028521e+05 1.026390e+05 1.026390e+05 1.026390e+05 1.035121e+05 1.017152e+05 1.033449e+05 1.033449e+05 1.027875e+05 1.027875e+05 1.027875e+05 1.027729e+05 1.017248e+05 1.017248e+05 1.017248e+05 1.025790e+05 1.025790e+05 1.025790e+05 1.027663e+05 1.015298e+05 1.015944e+05 1.017556e+05 1.017556e+05 1.017556e+05 1.016222e+05 1.017128e+05 1.017128e+05 1.023589e+05 1.022652e+05 1.033939e+05 1.017216e+05 1.017732e+05 1.026796e+05 1.022310e+05 1.019711e+05 1.019941e+05 1.025447e+05 1.025447e+05 1.026214e+05 1.030293e+05 1.018073e+05 1.019516e+05 1.020417e+05 1.017875e+05 1.019836e+05 1.019209e+05 1.019209e+05 1.023448e+05 1.024747e+05 1.025689e+05 1.021442e+05 1.018791e+05 1.032898e+05 1.024099e+05 1.024099e+05 1.027049e+05 1.027049e+05 1.027812e+05 1.027812e+05 1.027812e+05 1.026745e+05 1.026745e+05 1.020685e+05 1.028678e+05 1.028864e+05 1.028864e+05 1.022626e+05 1.019035e+05 1.019609e+05 1.022311e+05 1.022311e+05 1.022765e+05 1.026883e+05 1.025635e+05 1.025635e+05 1.024846e+05 1.024270e+05 1.026796e+05 1.026796e+05 1.021574e+05 1.020835e+05 1.020835e+05 1.020835e+05 1.018174e+05 1.022023e+05 1.023153e+05 1.018791e+05 1.018791e+05 1.018791e+05 1.018514e+05 1.019114e+05 1.020724e+05 1.018651e+05 1.022297e+05 1.023859e+05 1.023859e+05 1.023859e+05 1.022841e+05 1.020685e+05 1.028394e+05 1.028394e+05 1.028394e+05 1.023856e+05 1.023722e+05 1.025810e+05 1.025810e+05 1.018859e+05 1.026353e+05 1.026353e+05 1.026353e+05 1.025125e+05 1.025125e+05 1.030687e+05 1.030025e+05 1.030025e+05 1.024367e+05 1.022309e+05 1.022309e+05 1.023382e+05 1.025214e+05 1.025214e+05 1.025214e+05 1.024115e+05 1.024115e+05 1.024115e+05 1.019984e+05 1.019984e+05 1.020698e+05 1.017712e+05 1.025880e+05 1.025880e+05 1.021163e+05 1.021586e+05 1.021586e+05 1.021504e+05 1.021504e+05 1.024959e+05 1.020994e+05 1.021451e+05 1.021451e+05 1.022376e+05 1.022376e+05 1.020221e+05 1.020221e+05 1.021485e+05 1.022245e+05 1.022245e+05 1.021919e+05 1.021919e+05 1.021146e+05 1.022553e+05 1.028220e+05 1.028399e+05 1.028399e+05 1.023006e+05 1.021642e+05 1.020664e+05 1.028343e+05 1.028343e+05 1.023520e+05 1.029186e+05 1.029186e+05 1.025769e+05 1.025769e+05 1.024240e+05 1.026817e+05 1.026817e+05 1.026817e+05 1.026658e+05 1.026658e+05 1.026505e+05 1.022878e+05 1.022878e+05 1.025940e+05 1.025940e+05 1.024797e+05 1.021845e+05 1.020709e+05 1.024503e+05 1.024099e+05 1.027827e+05 1.027827e+05 1.023215e+05 1.023215e+05 1.022134e+05 1.022134e+05 1.025052e+05 1.022865e+05 1.022865e+05 1.021971e+05 1.021806e+05 1.021806e+05 1.024814e+05 1.024814e+05 1.024223e+05 1.023558e+05 1.023558e+05 1.022156e+05 1.022156e+05 1.022690e+05 1.022690e+05 1.022484e+05 1.022532e+05 1.022532e+05 1.022944e+05 1.023310e+05 1.023347e+05 1.023528e+05 1.023963e+05 1.027054e+05 1.027218e+05 1.025632e+05 1.025632e+05 1.027396e+05 1.024154e+05 1.024154e+05 1.023828e+05 1.023143e+05 1.027834e+05 1.028262e+05 1.028262e+05 1.023951e+05 1.023951e+05 1.025629e+05 1.027568e+05 1.024287e+05 1.024287e+05 1.025911e+05 1.025911e+05 1.024079e+05 1.024066e+05 1.024066e+05 1.024066e+05 1.024408e+05 1.024408e+05 1.026244e+05 1.025459e+05 1.024754e+05 1.024754e+05 1.025467e+05 1.025467e+05 1.026257e+05 1.024230e+05 1.027796e+05 1.026484e+05 1.025022e+05 1.024357e+05 1.025975e+05 1.025222e+05 1.026004e+05 1.024921e+05 1.024906e+05 1.024566e+05 1.025614e+05 1.025450e+05 1.026104e+05 1.026046e+05 1.025270e+05 1.025270e+05 1.025028e+05 1.025006e+05 1.025497e+05 1.025283e+05 1.025469e+05 1.025521e+05 1.025521e+05 1.025698e+05 1.025698e+05 1.024498e+05 1.024498e+05 1.025080e+05 1.025410e+05 1.025410e+05 1.025410e+05 1.024975e+05 1.024975e+05 1.024897e+05 1.024897e+05 1.024897e+05 1.024986e+05 1.024986e+05 1.025688e+05 1.025778e+05 1.024903e+05 1.025688e+05 1.025688e+05 1.025460e+05 1.024882e+05 1.025099e+05 1.024543e+05 1.024986e+05 1.025053e+05 1.025173e+05 1.025058e+05 1.024452e+05 1.024452e+05 1.024741e+05 1.026174e+05 1.024903e+05 1.028211e+05 1.026273e+05 1.025328e+05 1.027843e+05 1.027843e+05 1.027286e+05 1.026922e+05 1.027286e+05 1.025306e+05 1.026455e+05 1.024470e+05 1.024603e+05 1.024966e+05 1.024966e+05 1.024511e+05 1.036169e+05 1.036169e+05 1.036129e+05 1.035902e+05 1.036180e+05 1.035625e+05 1.035402e+05 1.035199e+05 1.035353e+05 1.034590e+05 1.034625e+05 1.034645e+05 1.034191e+05 1.033889e+05 1.033750e+05 1.033429e+05 1.032855e+05 1.032354e+05 1.032290e+05 1.032254e+05 1.031307e+05 1.031047e+05 1.030631e+05 1.030146e+05 1.029863e+05 1.029509e+05 1.029391e+05 1.028801e+05 1.028303e+05 1.027975e+05 1.027556e+05 1.027241e+05 1.026890e+05 1.026346e+05 1.026098e+05 1.025285e+05 1.024716e+05 1.024388e+05 1.023983e+05 1.023622e+05 1.023233e+05 1.022871e+05 1.022493e+05 1.021916e+05 1.021457e+05 1.021081e+05 1.020713e+05 1.020263e+05 1.019937e+05 1.019538e+05 1.018943e+05 1.018588e+05 1.018240e+05 1.017705e+05 1.017689e+05 1.016945e+05 1.016240e+05 1.015954e+05 1.015532e+05 1.015188e+05 1.014865e+05 1.014248e+05 1.013730e+05 1.013503e+05 1.013258e+05 1.012769e+05 1.012321e+05 1.012135e+05 1.011861e+05 1.011363e+05 1.010821e+05 1.010576e+05 1.010447e+05 1.010092e+05 1.009728e+05 1.009560e+05 1.009287e+05 1.009196e+05 1.009062e+05 1.008593e+05 1.008472e+05 1.008231e+05 1.008046e+05 1.007986e+05 1.007603e+05 1.007550e+05 1.007532e+05 1.007515e+05 1.007186e+05 1.007246e+05 1.007207e+05 1.007099e+05 1.007335e+05 1.007060e+05 1.007241e+05 1.007300e+05 1.007359e+05 1.007275e+05 1.007261e+05 1.007297e+05 1.007306e+05 1.007488e+05 1.007628e+05 1.007560e+05 1.007430e+05 1.007635e+05 1.007683e+05 1.007587e+05 1.008211e+05 1.008054e+05 1.008433e+05 1.008635e+05 1.008747e+05 1.009099e+05 1.009099e+05 1.009272e+05 1.009602e+05 1.009558e+05 1.010144e+05 1.010488e+05 1.010551e+05 1.010741e+05 1.011171e+05 1.011243e+05 1.011741e+05 1.012089e+05 1.012127e+05 1.012346e+05 1.012997e+05 1.013014e+05 1.013340e+05 1.013904e+05 1.013787e+05 1.014723e+05 1.014869e+05 1.015506e+05 1.015566e+05 1.015900e+05 1.016410e+05 1.016394e+05 1.016882e+05 1.017421e+05 1.017517e+05 1.017778e+05 1.018282e+05 1.018201e+05 1.018913e+05 1.018992e+05 1.019666e+05 1.019705e+05 1.020058e+05 1.020521e+05 1.020465e+05 1.020437e+05 1.020854e+05 1.021388e+05 1.021878e+05 1.022342e+05 1.022186e+05 1.022489e+05 1.023110e+05 1.023758e+05 1.023767e+05 1.023752e+05 1.024065e+05 1.024587e+05 1.024983e+05 1.024632e+05 1.025212e+05 1.025210e+05 1.025803e+05 1.025894e+05 1.026175e+05 1.026557e+05 1.026603e+05 1.026796e+05 1.027073e+05 1.027250e+05 1.027426e+05 1.027789e+05 1.027711e+05 1.024588e+05 1.024588e+05 1.024588e+05 1.024277e+05 1.024277e+05 1.024277e+05 1.025001e+05 1.024484e+05 1.024519e+05 1.024554e+05 1.025692e+05 1.025692e+05 1.025692e+05 1.025043e+05 1.025164e+05 1.025164e+05 1.025164e+05 1.024607e+05 1.025124e+05 1.031239e+05 1.031239e+05 1.031239e+05 1.031615e+05 1.030172e+05 1.030172e+05 1.030172e+05 1.029457e+05 1.013463e+05 1.013463e+05 1.013463e+05 1.013344e+05 1.013652e+05 1.014173e+05 1.022222e+05 1.022222e+05 1.022222e+05 1.021788e+05 1.021788e+05 1.024541e+05 1.024541e+05 1.024541e+05 1.024600e+05 1.023529e+05 1.023529e+05 1.023529e+05 1.023010e+05 1.023010e+05 1.035387e+05 1.035387e+05 1.035387e+05 1.010693e+05 1.010693e+05 1.010693e+05 1.011157e+05 1.010427e+05 1.010427e+05 1.010427e+05 1.019488e+05 1.019488e+05 1.019488e+05 1.019097e+05 1.013606e+05 1.013606e+05 1.014405e+05 1.014405e+05 1.010751e+05 1.010751e+05 1.011089e+05 1.020666e+05 1.020666e+05 1.020666e+05 1.020992e+05 1.020992e+05 1.024650e+05 1.024650e+05 1.024650e+05 1.024510e+05 1.024510e+05 1.025233e+05 1.025233e+05 1.025233e+05 1.024691e+05 1.024691e+05 1.030982e+05 1.030982e+05 1.013092e+05 1.013092e+05 1.013092e+05 1.013759e+05 1.008500e+05 1.008500e+05 1.008500e+05 1.008293e+05 1.009021e+05 1.012493e+05 1.012493e+05 1.012493e+05 1.010945e+05 1.010945e+05 1.010964e+05 1.025285e+05 1.025480e+05 1.025480e+05 1.026557e+05 1.026592e+05 1.026592e+05 1.007807e+05 1.011741e+05 1.012123e+05 1.025302e+05 1.025173e+05 1.025173e+05 1.025173e+05 1.024993e+05 1.025160e+05 1.024729e+05 1.024729e+05 1.024729e+05 1.024866e+05 1.024866e+05 1.023201e+05 1.023201e+05 1.023201e+05 1.023207e+05 1.023093e+05 1.023093e+05 1.023093e+05 1.023415e+05 1.031268e+05 1.031645e+05 1.031266e+05 1.032192e+05 1.032192e+05 1.017241e+05 1.017241e+05 1.017241e+05 1.018085e+05 1.020728e+05 1.020728e+05 1.020728e+05 1.022058e+05 1.022058e+05 1.021821e+05 1.020947e+05 1.020947e+05 1.020947e+05 1.021569e+05 1.017331e+05 1.017331e+05 1.017331e+05 1.017207e+05 1.017851e+05 1.018522e+05 1.018522e+05 1.018522e+05 1.019295e+05 1.028054e+05 1.028322e+05 1.014021e+05 1.014021e+05 1.014021e+05 1.014111e+05 1.020368e+05 1.020368e+05 1.020368e+05 1.019853e+05 1.022458e+05 1.022458e+05 1.022458e+05 1.022522e+05 1.022522e+05 1.020011e+05 1.020011e+05 1.020011e+05 1.020182e+05 1.018305e+05 1.018305e+05 1.018305e+05 1.018413e+05 1.021332e+05 1.021332e+05 1.021332e+05 1.021089e+05 1.012755e+05 1.012755e+05 1.011832e+05 1.008726e+05 1.008726e+05 1.010005e+05 1.010005e+05 1.010005e+05 1.008396e+05 1.008396e+05 1.008396e+05 1.007578e+05 1.026830e+05 1.026830e+05 1.026830e+05 1.026959e+05 1.026959e+05 1.030296e+05 1.030296e+05 1.030296e+05 1.029668e+05 1.029668e+05 1.008746e+05 1.015914e+05 1.015914e+05 1.016171e+05 1.027856e+05 1.027856e+05 1.027856e+05 1.027777e+05 1.021373e+05 1.021373e+05 1.021862e+05 1.021862e+05 1.023561e+05 1.023561e+05 1.024071e+05 1.019855e+05 1.019855e+05 1.023019e+05 1.023019e+05 1.023471e+05 1.023471e+05 1.018341e+05 1.018341e+05 1.018341e+05 1.018508e+05 1.009070e+05 1.009872e+05 1.012531e+05 1.012531e+05 1.012531e+05 1.011848e+05 1.014456e+05 1.014456e+05 1.014456e+05 1.014262e+05 1.014262e+05 1.026529e+05 1.026529e+05 1.026529e+05 1.026799e+05 1.026799e+05 1.012861e+05 1.013436e+05 1.034332e+05 1.034332e+05 1.034332e+05 1.034529e+05 1.023997e+05 1.023997e+05 1.023997e+05 1.023629e+05 1.023629e+05 1.024330e+05 1.024108e+05 1.012931e+05 1.012931e+05 1.012931e+05 1.014094e+05 1.014094e+05 1.013082e+05 1.012016e+05 1.012016e+05 1.018039e+05 1.018039e+05 1.018039e+05 1.018923e+05 1.018923e+05 1.017228e+05 1.017228e+05 1.017228e+05 1.018381e+05 1.018381e+05 1.023356e+05 1.023356e+05 1.