<?xml version="1.0"?>
 <VTKFile type="UnstructuredGrid" version="1.0" byte_order="LittleEndian" header_type="UInt64">
  <UnstructuredGrid>
    <FieldData>
     <DataArray type="Float64" Name="TimeValue" NumberOfTuples="1" format="ascii">
3e-05
     </DataArray>
    </FieldData>
   <Piece NumberOfPoints="3548" NumberOfCells="3379">
    <PointData>
     <DataArray type="Float64" Name="pointP" format="ascii">
1.009018e+05 1.009228e+05 1.009741e+05 1.009952e+05 1.010265e+05 1.010334e+05 1.010488e+05 1.010967e+05 1.011220e+05 1.011629e+05 1.011849e+05 1.011867e+05 1.011976e+05 1.012382e+05 1.012424e+05 1.012807e+05 1.013296e+05 1.013354e+05 1.013499e+05 1.013827e+05 1.014391e+05 1.014309e+05 1.014694e+05 1.015303e+05 1.015413e+05 1.015682e+05 1.015883e+05 1.016433e+05 1.016964e+05 1.017440e+05 1.017742e+05 1.018267e+05 1.018648e+05 1.018911e+05 1.019535e+05 1.019858e+05 1.019742e+05 1.020204e+05 1.020695e+05 1.021152e+05 1.021382e+05 1.021783e+05 1.022177e+05 1.022278e+05 1.022706e+05 1.022889e+05 1.023458e+05 1.023696e+05 1.023666e+05 1.024119e+05 1.024378e+05 1.024873e+05 1.025196e+05 1.025208e+05 1.025484e+05 1.025538e+05 1.026327e+05 1.026346e+05 1.026668e+05 1.026898e+05 1.027191e+05 1.027338e+05 1.027420e+05 1.027673e+05 1.027738e+05 1.028146e+05 1.028418e+05 1.028404e+05 1.028391e+05 1.028425e+05 1.028344e+05 1.028369e+05 1.028314e+05 1.028341e+05 1.028365e+05 1.028384e+05 1.028378e+05 1.028709e+05 1.028646e+05 1.028655e+05 1.028532e+05 1.028532e+05 1.028826e+05 1.028788e+05 1.029082e+05 1.029033e+05 1.029033e+05 1.028681e+05 1.028678e+05 1.028445e+05 1.028330e+05 1.028591e+05 1.028419e+05 1.028405e+05 1.028326e+05 1.028242e+05 1.028184e+05 1.028131e+05 1.028078e+05 1.028099e+05 1.028074e+05 1.027949e+05 1.027949e+05 1.027926e+05 1.027801e+05 1.027855e+05 1.027769e+05 1.027816e+05 1.027759e+05 1.027602e+05 1.027552e+05 1.027485e+05 1.027542e+05 1.027396e+05 1.027582e+05 1.027302e+05 1.027234e+05 1.027263e+05 1.027255e+05 1.027223e+05 1.027098e+05 1.027051e+05 1.026948e+05 1.026976e+05 1.027156e+05 1.026825e+05 1.026876e+05 1.026787e+05 1.026787e+05 1.026710e+05 1.026663e+05 1.026674e+05 1.026674e+05 1.026443e+05 1.026467e+05 1.026467e+05 1.026409e+05 1.026329e+05 1.026359e+05 1.026332e+05 1.026332e+05 1.026099e+05 1.026099e+05 1.026135e+05 1.026137e+05 1.026068e+05 1.026051e+05 1.026128e+05 1.025795e+05 1.025795e+05 1.025823e+05 1.025777e+05 1.025748e+05 1.025669e+05 1.025669e+05 1.025593e+05 1.025593e+05 1.025593e+05 1.025658e+05 1.024541e+05 1.024541e+05 1.024541e+05 1.023603e+05 1.023603e+05 1.023603e+05 1.024465e+05 1.025408e+05 1.025408e+05 1.025408e+05 1.024510e+05 1.024912e+05 1.024912e+05 1.024912e+05 1.024835e+05 1.027349e+05 1.027349e+05 1.027349e+05 1.027294e+05 1.026722e+05 1.027998e+05 1.027998e+05 1.027998e+05 1.027610e+05 1.016162e+05 1.016162e+05 1.016162e+05 1.018346e+05 1.018346e+05 1.018346e+05 1.018327e+05 1.017569e+05 1.027244e+05 1.027244e+05 1.027244e+05 1.026665e+05 1.012198e+05 1.012198e+05 1.012198e+05 1.012119e+05 1.012119e+05 1.016834e+05 1.016834e+05 1.016834e+05 1.017680e+05 1.017795e+05 1.023416e+05 1.023416e+05 1.023416e+05 1.024325e+05 1.024038e+05 1.016795e+05 1.016795e+05 1.016795e+05 1.017356e+05 1.026875e+05 1.026875e+05 1.026875e+05 1.010046e+05 1.010046e+05 1.015801e+05 1.015801e+05 1.020116e+05 1.020116e+05 1.020116e+05 1.020116e+05 1.025507e+05 1.025507e+05 1.025507e+05 1.025581e+05 1.028294e+05 1.028294e+05 1.028361e+05 1.028361e+05 1.022413e+05 1.022413e+05 1.022413e+05 1.021871e+05 1.021871e+05 1.027689e+05 1.027689e+05 1.027689e+05 1.027523e+05 1.027523e+05 1.010080e+05 1.023902e+05 1.023902e+05 1.023902e+05 1.023378e+05 1.014443e+05 1.014443e+05 1.014443e+05 1.015231e+05 1.015231e+05 1.016718e+05 1.016718e+05 1.016718e+05 1.016523e+05 1.016523e+05 1.020820e+05 1.020820e+05 1.020820e+05 1.020059e+05 1.020059e+05 1.022626e+05 1.022626e+05 1.022626e+05 1.022349e+05 1.022349e+05 1.026440e+05 1.026440e+05 1.026440e+05 1.026243e+05 1.017752e+05 1.017752e+05 1.017752e+05 1.018346e+05 1.024298e+05 1.024298e+05 1.024298e+05 1.025101e+05 1.025101e+05 1.018764e+05 1.018764e+05 1.018764e+05 1.022083e+05 1.022083e+05 1.022083e+05 1.021870e+05 1.021870e+05 1.021777e+05 1.021777e+05 1.021777e+05 1.021373e+05 1.021373e+05 1.024426e+05 1.024426e+05 1.024426e+05 1.023925e+05 1.022700e+05 1.022700e+05 1.027740e+05 1.027740e+05 1.027740e+05 1.015920e+05 1.015920e+05 1.015812e+05 1.015812e+05 1.014017e+05 1.014017e+05 1.014017e+05 1.014794e+05 1.028102e+05 1.028102e+05 1.028102e+05 1.028331e+05 1.013349e+05 1.013349e+05 1.027638e+05 1.027638e+05 1.027638e+05 1.014934e+05 1.014934e+05 1.014934e+05 1.015568e+05 1.015568e+05 1.028399e+05 1.028399e+05 1.028399e+05 1.028738e+05 1.028738e+05 1.028440e+05 1.028440e+05 1.028387e+05 1.028183e+05 1.028183e+05 1.028183e+05 1.013612e+05 1.013612e+05 1.016964e+05 1.024849e+05 1.024849e+05 1.024849e+05 1.027727e+05 1.015987e+05 1.015815e+05 1.023162e+05 1.023162e+05 1.023162e+05 1.026710e+05 1.026710e+05 1.026710e+05 1.028400e+05 1.028400e+05 1.028400e+05 1.025580e+05 1.025580e+05 1.025580e+05 1.025532e+05 1.025532e+05 1.025637e+05 1.025637e+05 1.025637e+05 1.025165e+05 1.025165e+05 1.024873e+05 1.024873e+05 1.025736e+05 1.025736e+05 1.026309e+05 1.026309e+05 1.025799e+05 1.019162e+05 1.019162e+05 1.020006e+05 1.020006e+05 1.024707e+05 1.024707e+05 1.024808e+05 1.024666e+05 1.024808e+05 1.024808e+05 1.024798e+05 1.023991e+05 1.023991e+05 1.024114e+05 1.024114e+05 1.024114e+05 1.024298e+05 1.024298e+05 1.024298e+05 1.015008e+05 1.014988e+05 1.014988e+05 1.015120e+05 1.015120e+05 1.015954e+05 1.013249e+05 1.016108e+05 1.027338e+05 1.028021e+05 1.028021e+05 1.021511e+05 1.021511e+05 1.021395e+05 1.017742e+05 1.019080e+05 1.019080e+05 1.028477e+05 1.028477e+05 1.028477e+05 1.028666e+05 1.028871e+05 1.010265e+05 1.010982e+05 1.010982e+05 1.019535e+05 1.019639e+05 1.019639e+05 1.010080e+05 1.014555e+05 1.014555e+05 1.019157e+05 1.011798e+05 1.011798e+05 1.011798e+05 1.025839e+05 1.020539e+05 1.020539e+05 1.020653e+05 1.013461e+05 1.013461e+05 1.013461e+05 1.012537e+05 1.012537e+05 1.013082e+05 1.011956e+05 1.011956e+05 1.018997e+05 1.010967e+05 1.011354e+05 1.028605e+05 1.028605e+05 1.028871e+05 1.027349e+05 1.027521e+05 1.027521e+05 1.027102e+05 1.026327e+05 1.026159e+05 1.026159e+05 1.025018e+05 1.010334e+05 1.011772e+05 1.028083e+05 1.016425e+05 1.028523e+05 1.012526e+05 1.012526e+05 1.024509e+05 1.024527e+05 1.028602e+05 1.022527e+05 1.022527e+05 1.022527e+05 1.022180e+05 1.022180e+05 1.011251e+05 1.011251e+05 1.017836e+05 1.012251e+05 1.013316e+05 1.028436e+05 1.026382e+05 1.026382e+05 1.010932e+05 1.016106e+05 1.020192e+05 1.023480e+05 1.011710e+05 1.020080e+05 1.018797e+05 1.020557e+05 1.021011e+05 1.021011e+05 1.016817e+05 1.028254e+05 1.022679e+05 1.022776e+05 1.028731e+05 1.012846e+05 1.012846e+05 1.012185e+05 1.020589e+05 1.020520e+05 1.020520e+05 1.026923e+05 1.013262e+05 1.013262e+05 1.013262e+05 1.013462e+05 1.028583e+05 1.028611e+05 1.014931e+05 1.014931e+05 1.014931e+05 1.014386e+05 1.025538e+05 1.023679e+05 1.025849e+05 1.025849e+05 1.017635e+05 1.018118e+05 1.018995e+05 1.019397e+05 1.024783e+05 1.012695e+05 1.025352e+05 1.024653e+05 1.024653e+05 1.024780e+05 1.024780e+05 1.026464e+05 1.026464e+05 1.017582e+05 1.017582e+05 1.026304e+05 1.022560e+05 1.013299e+05 1.013299e+05 1.015535e+05 1.015535e+05 1.013129e+05 1.023976e+05 1.013707e+05 1.013613e+05 1.021519e+05 1.021692e+05 1.028449e+05 1.028449e+05 1.028203e+05 1.028125e+05 1.010517e+05 1.028402e+05 1.028402e+05 1.021702e+05 1.021438e+05 1.028738e+05 1.028518e+05 1.028332e+05 1.020907e+05 1.026642e+05 1.013966e+05 1.013966e+05 1.019487e+05 1.012933e+05 1.026682e+05 1.023341e+05 1.013243e+05 1.027904e+05 1.027904e+05 1.027904e+05 1.027926e+05 1.027926e+05 1.018986e+05 1.019567e+05 1.016940e+05 1.016576e+05 1.023748e+05 1.028540e+05 1.014349e+05 1.022802e+05 1.028676e+05 1.018512e+05 1.025175e+05 1.028488e+05 1.028488e+05 1.028488e+05 1.019958e+05 1.020693e+05 1.015697e+05 1.016345e+05 1.028723e+05 1.028723e+05 1.024086e+05 1.025847e+05 1.025847e+05 1.026106e+05 1.026106e+05 1.017435e+05 1.027392e+05 1.026791e+05 1.026791e+05 1.018140e+05 1.018140e+05 1.015327e+05 1.018444e+05 1.018444e+05 1.018191e+05 1.027559e+05 1.027559e+05 1.028200e+05 1.028200e+05 1.028200e+05 1.028427e+05 1.017461e+05 1.014170e+05 1.022782e+05 1.022782e+05 1.022149e+05 1.013746e+05 1.018057e+05 1.018124e+05 1.024727e+05 1.028305e+05 1.014738e+05 1.015293e+05 1.021540e+05 1.021540e+05 1.016533e+05 1.016533e+05 1.021819e+05 1.026941e+05 1.025821e+05 1.025821e+05 1.019087e+05 1.018779e+05 1.013746e+05 1.018979e+05 1.021923e+05 1.021923e+05 1.016957e+05 1.026342e+05 1.026342e+05 1.027910e+05 1.027580e+05 1.027580e+05 1.015625e+05 1.015625e+05 1.016349e+05 1.020335e+05 1.020335e+05 1.020335e+05 1.019744e+05 1.028557e+05 1.016706e+05 1.014664e+05 1.020617e+05 1.020617e+05 1.023301e+05 1.023301e+05 1.024072e+05 1.014654e+05 1.027891e+05 1.027952e+05 1.027952e+05 1.020899e+05 1.028562e+05 1.028562e+05 1.027348e+05 1.026585e+05 1.019802e+05 1.024856e+05 1.024856e+05 1.024856e+05 1.017342e+05 1.017730e+05 1.022976e+05 1.023184e+05 1.023184e+05 1.024380e+05 1.024380e+05 1.024380e+05 1.024235e+05 1.028104e+05 1.021191e+05 1.021191e+05 1.020466e+05 1.027139e+05 1.025538e+05 1.025538e+05 1.025538e+05 1.023303e+05 1.023297e+05 1.022696e+05 1.016873e+05 1.017171e+05 1.018119e+05 1.018630e+05 1.021692e+05 1.019634e+05 1.019650e+05 1.019650e+05 1.027184e+05 1.027184e+05 1.026401e+05 1.026884e+05 1.021119e+05 1.021119e+05 1.021119e+05 1.026082e+05 1.017906e+05 1.023235e+05 1.018127e+05 1.019390e+05 1.021920e+05 1.018167e+05 1.026346e+05 1.026758e+05 1.026772e+05 1.026439e+05 1.026439e+05 1.020645e+05 1.020645e+05 1.020645e+05 1.019857e+05 1.022847e+05 1.023676e+05 1.022033e+05 1.019769e+05 1.022843e+05 1.021951e+05 1.020211e+05 1.021064e+05 1.025220e+05 1.025220e+05 1.025220e+05 1.025998e+05 1.025472e+05 1.022766e+05 1.022766e+05 1.025542e+05 1.025542e+05 1.021611e+05 1.021814e+05 1.023486e+05 1.022214e+05 1.025200e+05 1.021985e+05 1.023775e+05 1.023775e+05 1.021910e+05 1.022679e+05 1.022679e+05 1.023623e+05 1.023623e+05 1.024789e+05 1.024789e+05 1.024872e+05 1.024068e+05 1.024068e+05 1.022942e+05 1.024228e+05 1.025009e+05 1.024289e+05 1.025458e+05 1.025458e+05 1.025458e+05 1.028363e+05 1.028363e+05 1.028363e+05 1.028318e+05 1.028318e+05 1.025271e+05 1.025271e+05 1.025271e+05 1.025239e+05 1.028357e+05 1.028357e+05 1.028256e+05 1.028256e+05 1.028469e+05 1.028469e+05 1.028469e+05 1.025436e+05 1.025436e+05 1.025436e+05 1.025757e+05 1.026342e+05 1.026342e+05 1.026342e+05 1.026734e+05 1.027051e+05 1.027051e+05 1.027560e+05 1.027560e+05 1.027560e+05 1.027828e+05 1.027828e+05 1.027828e+05 1.028322e+05 1.028322e+05 1.028322e+05 1.028247e+05 1.028247e+05 1.028247e+05 1.028187e+05 1.026455e+05 1.026455e+05 1.026455e+05 1.026663e+05 1.026663e+05 1.026663e+05 1.026090e+05 1.026090e+05 1.026090e+05 1.025808e+05 1.025808e+05 1.025808e+05 1.025871e+05 1.025871e+05 1.025517e+05 1.025517e+05 1.025157e+05 1.025454e+05 1.025014e+05 1.025014e+05 1.025014e+05 1.025987e+05 1.025987e+05 1.027008e+05 1.027008e+05 1.027008e+05 1.026662e+05 1.026662e+05 1.026662e+05 1.027728e+05 1.027728e+05 1.027728e+05 1.027444e+05 1.027905e+05 1.027905e+05 1.027905e+05 1.027923e+05 1.027719e+05 1.027719e+05 1.027719e+05 1.027862e+05 1.027862e+05 1.027862e+05 1.027619e+05 1.027851e+05 1.027413e+05 1.027413e+05 1.027413e+05 1.028058e+05 1.028058e+05 1.027879e+05 1.027879e+05 1.027886e+05 1.027707e+05 1.027707e+05 1.027177e+05 1.027177e+05 1.027177e+05 1.026889e+05 1.026889e+05 1.026784e+05 1.026784e+05 1.026784e+05 1.027329e+05 1.026249e+05 1.026249e+05 1.026249e+05 1.025496e+05 1.025462e+05 1.025470e+05 1.025470e+05 1.025192e+05 1.025192e+05 1.026407e+05 1.026407e+05 1.026407e+05 1.026313e+05 1.026439e+05 1.028529e+05 1.028529e+05 1.027775e+05 1.028275e+05 1.028072e+05 1.028072e+05 1.028072e+05 1.027635e+05 1.028357e+05 1.028357e+05 1.027634e+05 1.027412e+05 1.027412e+05 1.027500e+05 1.026744e+05 1.026744e+05 1.027359e+05 1.027359e+05 1.027359e+05 1.028634e+05 1.028634e+05 1.028634e+05 1.028359e+05 1.028349e+05 1.026707e+05 1.028365e+05 1.028365e+05 1.028365e+05 1.028443e+05 1.028214e+05 1.028214e+05 1.027242e+05 1.027242e+05 1.027596e+05 1.028233e+05 1.028233e+05 1.028172e+05 1.028172e+05 1.027445e+05 1.027445e+05 1.027445e+05 1.026444e+05 1.026444e+05 1.026009e+05 1.026009e+05 1.027927e+05 1.027339e+05 1.027339e+05 1.027339e+05 1.027618e+05 1.027618e+05 1.026882e+05 1.026882e+05 1.028474e+05 1.028474e+05 1.026136e+05 1.026136e+05 1.027519e+05 1.027192e+05 1.027192e+05 1.027247e+05 1.027247e+05 1.027956e+05 1.027956e+05 1.027956e+05 1.027177e+05 1.027177e+05 1.027177e+05 1.028172e+05 1.027711e+05 1.027503e+05 1.027408e+05 1.027408e+05 1.027523e+05 1.027722e+05 1.027086e+05 1.027086e+05 1.026920e+05 1.026920e+05 1.026920e+05 1.028258e+05 1.028104e+05 1.028104e+05 1.026798e+05 1.026798e+05 1.026499e+05 1.027227e+05 1.027085e+05 1.027085e+05 1.026221e+05 1.026221e+05 1.026221e+05 1.026591e+05 1.026591e+05 1.026026e+05 1.027018e+05 1.027239e+05 1.027239e+05 1.025607e+05 1.027399e+05 1.027399e+05 1.027522e+05 1.027352e+05 1.027352e+05 1.027240e+05 1.026393e+05 1.026393e+05 1.027768e+05 1.027768e+05 1.026704e+05 1.027127e+05 1.027127e+05 1.026853e+05 1.026853e+05 1.026989e+05 1.026838e+05 1.027168e+05 1.027168e+05 1.027037e+05 1.027305e+05 1.027367e+05 1.027367e+05 1.027328e+05 1.026900e+05 1.026098e+05 1.026098e+05 1.026098e+05 1.026337e+05 1.026337e+05 1.026337e+05 1.026446e+05 1.026446e+05 1.025833e+05 1.025833e+05 1.025833e+05 1.026832e+05 1.026059e+05 1.026174e+05 1.026194e+05 1.026145e+05 1.026145e+05 1.026145e+05 1.026653e+05 1.026350e+05 1.026350e+05 1.026540e+05 1.026540e+05 1.026540e+05 1.025620e+05 1.026748e+05 1.026120e+05 1.026120e+05 1.026158e+05 1.026158e+05 1.026158e+05 1.026636e+05 1.026024e+05 1.026643e+05 1.026643e+05 1.026643e+05 1.026549e+05 1.026549e+05 1.026569e+05 1.025576e+05 1.025974e+05 1.026655e+05 1.026336e+05 1.026336e+05 1.026027e+05 1.025862e+05 1.025862e+05 1.025685e+05 1.025685e+05 1.025685e+05 1.026273e+05 1.025865e+05 1.026387e+05 1.025679e+05 1.025874e+05 1.025852e+05 1.025974e+05 1.025356e+05 1.025356e+05 1.025418e+05 1.025793e+05 1.025793e+05 1.025821e+05 1.025476e+05 1.025476e+05 1.025476e+05 1.025499e+05 1.025499e+05 1.025466e+05 1.025466e+05 1.025756e+05 1.025726e+05 1.025726e+05 1.025526e+05 1.025115e+05 1.025339e+05 1.025347e+05 1.025221e+05 1.025184e+05 1.025395e+05 1.025221e+05 1.024992e+05 1.028721e+05 1.028721e+05 1.028054e+05 1.028054e+05 1.028954e+05 1.028954e+05 1.028305e+05 1.028411e+05 1.028584e+05 1.028836e+05 1.028748e+05 1.024730e+05 1.024730e+05 1.025411e+05 1.027329e+05 1.026975e+05 1.025044e+05 1.025044e+05 1.028518e+05 1.028681e+05 1.028614e+05 1.028727e+05 1.028727e+05 1.028727e+05 1.028826e+05 1.028826e+05 1.028826e+05 1.028680e+05 1.028762e+05 1.028762e+05 1.028345e+05 1.028345e+05 1.028855e+05 1.028721e+05 1.028408e+05 1.026601e+05 1.025323e+05 1.025366e+05 1.025602e+05 1.025771e+05 1.025771e+05 1.027076e+05 1.028400e+05 1.028717e+05 1.028671e+05 1.028662e+05 1.028662e+05 1.028437e+05 1.027858e+05 1.027482e+05 1.027077e+05 1.027077e+05 1.026670e+05 1.025506e+05 1.026015e+05 1.025622e+05 1.025622e+05 1.025622e+05 1.026618e+05 1.026446e+05 1.026571e+05 1.026571e+05 1.027645e+05 1.026777e+05 1.026777e+05 1.027376e+05 1.027142e+05 1.027496e+05 1.027496e+05 1.025733e+05 1.025733e+05 1.025733e+05 1.025780e+05 1.025780e+05 1.025666e+05 1.027513e+05 1.027351e+05 1.027037e+05 1.026650e+05 1.026027e+05 1.028083e+05 1.027687e+05 1.027697e+05 1.026624e+05 1.027364e+05 1.026351e+05 1.026838e+05 1.026466e+05 1.026466e+05 1.026117e+05 1.026687e+05 1.026474e+05 1.026142e+05 1.026610e+05 1.025704e+05 1.025893e+05 1.025893e+05 1.025951e+05 1.026220e+05 1.025923e+05 1.026540e+05 1.026540e+05 1.026747e+05 1.026632e+05 1.026359e+05 1.026202e+05 1.026015e+05 1.026231e+05 1.025884e+05 1.026583e+05 1.025869e+05 1.025869e+05 1.025869e+05 1.025885e+05 1.025985e+05 1.025985e+05 1.026215e+05 1.026215e+05 1.026090e+05 1.025938e+05 1.025938e+05 1.025722e+05 1.026220e+05 1.025986e+05 1.026067e+05 1.025690e+05 1.025777e+05 1.025607e+05 1.025607e+05 1.025661e+05 1.026792e+05 1.025750e+05 1.025750e+05 1.025730e+05 1.025730e+05 1.025807e+05 1.025739e+05 1.025699e+05 1.025688e+05 1.025688e+05 1.028021e+05 1.028021e+05 1.028149e+05 1.028178e+05 1.028384e+05 1.028373e+05 1.028456e+05 1.028331e+05 1.028196e+05 1.028196e+05 1.028196e+05 1.028421e+05 1.028563e+05 1.028563e+05 1.028563e+05 1.028753e+05 1.028520e+05 1.028520e+05 1.028250e+05 1.028250e+05 1.028424e+05 1.028665e+05 1.028665e+05 1.028665e+05 1.028670e+05 1.028470e+05 1.028470e+05 1.028470e+05 1.028302e+05 1.028534e+05 1.028387e+05 1.028240e+05 1.028240e+05 1.028434e+05 1.028264e+05 1.028264e+05 1.028264e+05 1.028191e+05 1.028191e+05 1.028191e+05 1.028247e+05 1.028247e+05 1.028095e+05 1.028410e+05 1.028777e+05 1.028109e+05 1.028109e+05 1.028264e+05 1.028646e+05 1.028597e+05 1.028597e+05 1.028597e+05 1.028371e+05 1.028371e+05 1.028095e+05 1.028309e+05 1.028507e+05 1.028247e+05 1.028704e+05 1.028704e+05 1.028452e+05 1.028507e+05 1.028559e+05 1.028624e+05 1.028806e+05 1.028303e+05 1.028303e+05 1.028272e+05 1.028034e+05 1.027358e+05 1.027358e+05 1.027358e+05 1.027204e+05 1.027204e+05 1.026830e+05 1.026209e+05 1.026209e+05 1.025298e+05 1.026743e+05 1.026743e+05 1.026743e+05 1.026955e+05 1.026955e+05 1.027409e+05 1.027409e+05 1.027409e+05 1.028330e+05 1.028330e+05 1.026612e+05 1.025760e+05 1.025760e+05 1.025760e+05 1.027329e+05 1.027329e+05 1.027329e+05 1.027380e+05 1.027263e+05 1.026397e+05 1.026397e+05 1.026397e+05 1.027741e+05 1.027741e+05 1.027741e+05 1.028617e+05 1.028617e+05 1.028617e+05 1.028535e+05 1.028535e+05 1.028207e+05 1.028207e+05 1.028207e+05 1.027385e+05 1.027385e+05 1.028363e+05 1.028363e+05 1.028363e+05 1.028344e+05 1.028344e+05 1.028044e+05 1.028044e+05 1.028044e+05 1.026470e+05 1.026470e+05 1.026470e+05 1.027458e+05 1.027458e+05 1.027458e+05 1.027546e+05 1.027546e+05 1.026249e+05 1.026249e+05 1.026249e+05 1.026147e+05 1.026147e+05 1.024861e+05 1.025327e+05 1.025327e+05 1.025327e+05 1.025366e+05 1.025982e+05 1.025982e+05 1.025982e+05 1.025788e+05 1.025911e+05 1.025911e+05 1.025911e+05 1.026973e+05 1.027160e+05 1.026924e+05 1.026924e+05 1.026924e+05 1.027230e+05 1.025940e+05 1.025940e+05 1.025940e+05 1.027961e+05 1.027961e+05 1.027961e+05 1.028099e+05 1.028099e+05 1.027893e+05 1.027893e+05 1.027893e+05 1.027934e+05 1.028061e+05 1.028061e+05 1.027957e+05 1.027957e+05 1.028242e+05 1.028278e+05 1.028239e+05 1.027598e+05 1.028452e+05 1.028337e+05 1.028034e+05 1.028193e+05 1.028193e+05 1.026131e+05 1.026131e+05 1.026131e+05 1.026881e+05 1.026881e+05 1.025524e+05 1.025524e+05 1.025524e+05 1.028552e+05 1.028552e+05 1.028552e+05 1.026976e+05 1.026976e+05 1.027855e+05 1.027855e+05 1.027378e+05 1.027378e+05 1.027378e+05 1.027740e+05 1.027740e+05 1.027740e+05 1.027930e+05 1.027930e+05 1.027930e+05 1.028628e+05 1.026443e+05 1.026443e+05 1.027602e+05 1.027602e+05 1.027396e+05 1.027396e+05 1.028054e+05 1.028054e+05 1.028215e+05 1.028361e+05 1.028361e+05 1.028361e+05 1.028404e+05 1.028768e+05 1.028723e+05 1.028150e+05 1.026872e+05 1.026872e+05 1.026872e+05 1.028000e+05 1.028000e+05 1.028457e+05 1.028457e+05 1.028617e+05 1.028617e+05 1.028784e+05 1.028784e+05 1.027719e+05 1.027719e+05 1.027876e+05 1.028445e+05 1.028445e+05 1.027160e+05 1.027160e+05 1.027160e+05 1.027952e+05 1.027896e+05 1.028304e+05 1.027368e+05 1.027368e+05 1.027368e+05 1.027332e+05 1.027332e+05 1.027332e+05 1.027511e+05 1.026938e+05 1.026938e+05 1.026938e+05 1.026795e+05 1.026795e+05 1.026795e+05 1.027681e+05 1.027681e+05 1.028472e+05 1.028427e+05 1.027428e+05 1.027428e+05 1.027389e+05 1.027389e+05 1.027583e+05 1.027361e+05 1.027970e+05 1.027616e+05 1.027655e+05 1.027655e+05 1.027678e+05 1.027237e+05 1.026908e+05 1.026908e+05 1.027872e+05 1.028156e+05 1.027253e+05 1.027253e+05 1.026924e+05 1.027519e+05 1.027519e+05 1.027516e+05 1.027003e+05 1.027003e+05 1.027003e+05 1.027373e+05 1.027377e+05 1.027029e+05 1.027029e+05 1.027029e+05 1.026774e+05 1.026774e+05 1.028231e+05 1.027578e+05 1.027807e+05 1.027807e+05 1.027635e+05 1.026611e+05 1.027527e+05 1.027527e+05 1.027527e+05 1.027411e+05 1.027449e+05 1.026387e+05 1.026387e+05 1.026387e+05 1.026395e+05 1.026743e+05 1.026743e+05 1.026691e+05 1.026691e+05 1.027173e+05 1.027664e+05 1.027268e+05 1.027371e+05 1.027049e+05 1.027049e+05 1.027049e+05 1.027183e+05 1.027183e+05 1.026405e+05 1.026405e+05 1.026405e+05 1.027324e+05 1.026753e+05 1.026688e+05 1.026688e+05 1.026918e+05 1.026918e+05 1.027131e+05 1.027285e+05 1.026816e+05 1.026816e+05 1.026816e+05 1.026279e+05 1.026279e+05 1.026155e+05 1.026155e+05 1.026155e+05 1.026805e+05 1.026805e+05 1.026724e+05 1.026577e+05 1.026577e+05 1.025847e+05 1.025847e+05 1.025962e+05 1.025962e+05 1.026874e+05 1.026871e+05 1.026871e+05 1.025992e+05 1.025992e+05 1.026978e+05 1.026609e+05 1.026575e+05 1.026575e+05 1.026822e+05 1.026337e+05 1.026337e+05 1.026540e+05 1.026540e+05 1.026540e+05 1.026544e+05 1.025963e+05 1.025963e+05 1.025963e+05 1.026339e+05 1.026021e+05 1.026649e+05 1.026649e+05 1.026649e+05 1.026723e+05 1.026476e+05 1.026199e+05 1.026350e+05 1.026446e+05 1.026795e+05 1.026270e+05 1.026372e+05 1.026372e+05 1.026033e+05 1.025566e+05 1.025566e+05 1.025566e+05 1.026230e+05 1.026158e+05 1.026660e+05 1.026184e+05 1.026035e+05 1.026202e+05 1.026643e+05 1.025973e+05 1.025973e+05 1.026016e+05 1.026189e+05 1.025453e+05 1.025507e+05 1.026305e+05 1.026305e+05 1.026108e+05 1.025921e+05 1.025453e+05 1.025727e+05 1.025727e+05 1.025727e+05 1.025687e+05 1.025529e+05 1.025809e+05 1.025341e+05 1.025619e+05 1.025619e+05 1.025619e+05 1.025573e+05 1.025573e+05 1.025341e+05 1.025520e+05 1.025520e+05 1.025386e+05 1.025754e+05 1.025754e+05 1.025687e+05 1.025695e+05 1.025180e+05 1.025180e+05 1.025180e+05 1.025459e+05 1.025536e+05 1.025536e+05 1.025458e+05 1.025298e+05 1.025298e+05 1.025047e+05 1.025366e+05 1.025071e+05 1.025077e+05 1.025077e+05 1.025268e+05 1.025105e+05 1.025111e+05 1.025111e+05 1.024991e+05 1.025047e+05 1.025047e+05 1.025013e+05 1.027485e+05 1.028326e+05 1.029033e+05 1.028826e+05 1.028826e+05 1.027769e+05 1.028121e+05 1.028121e+05 1.028465e+05 1.028429e+05 1.028681e+05 1.028681e+05 1.029082e+05 1.028407e+05 1.028686e+05 1.028617e+05 1.028832e+05 1.025952e+05 1.026029e+05 1.025645e+05 1.027630e+05 1.028669e+05 1.028391e+05 1.028352e+05 1.026643e+05 1.026338e+05 1.026000e+05 1.025657e+05 1.027842e+05 1.025848e+05 1.028014e+05 1.025852e+05 1.025704e+05 1.025704e+05 1.025704e+05 1.026261e+05 1.027234e+05 1.027234e+05 1.027228e+05 1.027988e+05 1.028074e+05 1.027733e+05 1.026948e+05 1.027759e+05 1.027263e+05 1.026787e+05 1.026663e+05 1.026663e+05 1.026467e+05 1.026332e+05 1.027255e+05 1.026753e+05 1.026753e+05 1.027203e+05 1.026825e+05 1.026099e+05 1.026713e+05 1.026209e+05 1.026135e+05 1.026637e+05 1.026269e+05 1.026359e+05 1.026359e+05 1.026674e+05 1.026409e+05 1.026425e+05 1.025795e+05 1.025823e+05 1.025823e+05 1.026137e+05 1.026726e+05 1.026051e+05 1.026051e+05 1.026317e+05 1.025757e+05 1.025757e+05 1.025859e+05 1.025859e+05 1.026140e+05 1.026068e+05 1.026270e+05 1.026296e+05 1.025666e+05 1.025666e+05 1.025666e+05 1.026653e+05 1.026117e+05 1.026128e+05 1.025700e+05 1.026164e+05 1.026648e+05 1.026403e+05 1.025938e+05 1.026367e+05 1.026039e+05 1.026039e+05 1.026065e+05 1.025752e+05 1.025752e+05 1.026175e+05 1.026175e+05 1.026212e+05 1.026818e+05 1.025986e+05 1.025832e+05 1.025827e+05 1.025605e+05 1.025646e+05 1.025846e+05 1.026050e+05 1.025899e+05 1.025710e+05 1.009018e+05 1.009228e+05 1.009741e+05 1.009952e+05 1.010265e+05 1.010334e+05 1.010488e+05 1.010967e+05 1.011220e+05 1.011629e+05 1.011849e+05 1.011867e+05 1.011976e+05 1.012382e+05 1.012424e+05 1.012807e+05 1.013296e+05 1.013354e+05 1.013499e+05 1.013827e+05 1.014391e+05 1.014309e+05 1.014694e+05 1.015303e+05 1.015413e+05 1.015682e+05 1.015883e+05 1.016433e+05 1.016964e+05 1.017440e+05 1.017742e+05 1.018267e+05 1.018648e+05 1.018911e+05 1.019535e+05 1.019858e+05 1.019742e+05 1.020204e+05 1.020695e+05 1.021152e+05 1.021382e+05 1.021783e+05 1.022177e+05 1.022278e+05 1.022706e+05 1.022889e+05 1.023458e+05 1.023696e+05 1.023666e+05 1.024119e+05 1.024378e+05 1.024873e+05 1.025196e+05 1.025208e+05 1.025484e+05 1.025538e+05 1.026327e+05 1.026346e+05 1.026668e+05 1.026898e+05 1.027191e+05 1.027338e+05 1.027420e+05 1.027673e+05 1.027738e+05 1.028146e+05 1.028418e+05 1.028404e+05 1.028391e+05 1.028425e+05 1.028344e+05 1.028369e+05 1.028314e+05 1.028341e+05 1.028365e+05 1.028384e+05 1.028378e+05 1.028709e+05 1.028646e+05 1.028655e+05 1.028532e+05 1.028532e+05 1.028826e+05 1.028788e+05 1.029082e+05 1.029033e+05 1.029033e+05 1.028681e+05 1.028678e+05 1.028445e+05 1.028330e+05 1.028591e+05 1.028419e+05 1.028405e+05 1.028326e+05 1.028242e+05 1.028184e+05 1.028131e+05 1.028078e+05 1.028099e+05 1.028074e+05 1.027949e+05 1.027949e+05 1.027926e+05 1.027801e+05 1.027855e+05 1.027769e+05 1.027816e+05 1.027759e+05 1.027602e+05 1.027552e+05 1.027485e+05 1.027542e+05 1.027396e+05 1.027582e+05 1.027302e+05 1.027234e+05 1.027263e+05 1.027255e+05 1.027223e+05 1.027098e+05 1.027051e+05 1.026948e+05 1.026976e+05 1.027156e+05 1.026825e+05 1.026876e+05 1.026787e+05 1.026787e+05 1.026710e+05 1.026663e+05 1.026674e+05 1.026674e+05 1.026443e+05 1.026467e+05 1.026467e+05 1.026409e+05 1.026329e+05 1.026359e+05 1.026332e+05 1.026332e+05 1.026099e+05 1.026099e+05 1.026135e+05 1.026137e+05 1.026068e+05 1.026051e+05 1.026128e+05 1.025795e+05 1.025795e+05 1.025823e+05 1.025777e+05 1.025748e+05 1.025669e+05 1.025669e+05 1.025593e+05 1.025593e+05 1.025593e+05 1.025658e+05 1.024541e+05 1.024541e+05 1.024541e+05 1.023603e+05 1.023603e+05 1.023603e+05 1.024465e+05 1.025408e+05 1.025408e+05 1.025408e+05 1.024510e+05 1.024912e+05 1.024912e+05 1.024912e+05 1.024835e+05 1.027349e+05 1.027349e+05 1.027349e+05 1.027294e+05 1.026722e+05 1.027998e+05 1.027998e+05 1.027998e+05 1.027610e+05 1.016162e+05 1.016162e+05 1.016162e+05 1.018346e+05 1.018346e+05 1.018346e+05 1.018327e+05 1.017569e+05 1.027244e+05 1.027244e+05 1.027244e+05 1.026665e+05 1.012198e+05 1.012198e+05 1.012198e+05 1.012119e+05 1.012119e+05 1.016834e+05 1.016834e+05 1.016834e+05 1.017680e+05 1.017795e+05 1.023416e+05 1.023416e+05 1.023416e+05 1.024325e+05 1.024038e+05 1.016795e+05 1.016795e+05 1.016795e+05 1.017356e+05 1.026875e+05 1.026875e+05 1.026875e+05 1.010046e+05 1.010046e+05 1.015801e+05 1.015801e+05 1.020116e+05 1.020116e+05 1.020116e+05 1.020116e+05 1.025507e+05 1.025507e+05 1.025507e+05 1.025581e+05 1.028294e+05 1.028294e+05 1.028361e+05 1.028361e+05 1.022413e+05 1.022413e+05 1.022413e+05 1.021871e+05 1.021871e+05 1.027689e+05 1.027689e+05 1.027689e+05 1.027523e+05 1.027523e+05 1.010080e+05 1.023902e+05 1.023902e+05 1.023902e+05 1.023378e+05 1.014443e+05 1.014443e+05 1.014443e+05 1.015231e+05 1.015231e+05 1.016718e+05 1.016718e+05 1.016718e+05 1.016523e+05 1.016523e+05 1.020820e+05 1.020820e+05 1.020820e+05 1.020059e+05 1.020059e+05 1.022626e+05 1.022626e+05 1.022626e+05 1.022349e+05 1.022349e+05 1.026440e+05 1.026440e+05 1.026440e+05 1.026243e+05 1.017752e+05 1.017752e+05 1.017752e+05 1.018346e+05 1.024298e+05 1.024298e+05 1.024298e+05 1.025101e+05 1.025101e+05 1.018764e+05 1.018764e+05 1.018764e+05 1.022083e+05 1.022083e+05 1.022083e+05 1.021870e+05 1.021870e+05 1.021777e+05 1.021777e+05 1.021777e+05 1.021373e+05 1.021373e+05 1.024426e+05 1.024426e+05 1.024426e+05 1.023925e+05 1.022700e+05 1.022700e+05 1.027740e+05 1.027740e+05 1.027740e+05 1.015920e+05 1.015920e+05 1.015812e+05 1.015812e+05 1.014017e+05 1.014017e+05 1.014017e+05 1.014794e+05 1.028102e+05 1.028102e+05 1.028102e+05 1.028331e+05 1.013349e+05 1.013349e+05 1.027638e+05 1.027638e+05 1.027638e+05 1.014934e+05 1.014934e+05 1.014934e+05 1.015568e+05 1.015568e+05 1.028399e+05 1.028399e+05 1.028399e+05 1.028738e+05 1.028738e+05 1.028440e+05 1.028440e+05 1.028387e+05 1.028183e+05 1.028183e+05 1.028183e+05 1.013612e+05 1.013612e+05 1.016964e+05 1.024849e+05 1.024849e+05 1.024849e+05 1.027727e+05 1.015987e+05 1.015815e+05 1.023162e+05 1.023162e+05 1.023162e+05 1.026710e+05 1.026710e+05 1.026710e+05 1.028400e+05 1.028400e+05 1.028400e+05 1.025580e+05 1.025580e+05 1.025580e+05 1.025532e+05 1.025532e+05 1.025637e+05 1.025637e+05 1.025637e+05 1.025165e+05 1.025165e+05 1.024873e+05 1.024873e+05 1.025736e+05 1.025736e+05 1.026309e+05 1.026309e+05 1.025799e+05 1.019162e+05 1.019162e+05 1.020006e+05 1.020006e+05 1.024707e+05 1.024707e+05 1.024808e+05 1.024666e+05 1.024808e+05 1.024808e+05 1.024798e+05 1.023991e+05 1.023991e+05 1.024114e+05 1.024114e+05 1.024114e+05 1.024298e+05 1.024298e+05 1.024298e+05 1.015008e+05 1.014988e+05 1.014988e+05 1.015120e+05 1.015120e+05 1.015954e+05 1.013249e+05 1.016108e+05 1.027338e+05 1.028021e+05 1.028021e+05 1.021511e+05 1.021511e+05 1.021395e+05 1.017742e+05 1.019080e+05 1.019080e+05 1.028477e+05 1.028477e+05 1.028477e+05 1.028666e+05 1.028871e+05 1.010265e+05 1.010982e+05 1.010982e+05 1.019535e+05 1.019639e+05 1.019639e+05 1.010080e+05 1.014555e+05 1.014555e+05 1.019157e+05 1.011798e+05 1.011798e+05 1.011798e+05 1.025839e+05 1.020539e+05 1.020539e+05 1.020653e+05 1.013461e+05 1.013461e+05 1.013461e+05 1.012537e+05 1.012537e+05 1.013082e+05 1.011956e+05 1.011956e+05 1.018997e+05 1.010967e+05 1.011354e+05 1.028605e+05 1.028605e+05 1.028871e+05 1.027349e+05 1.027521e+05 1.027521e+05 1.027102e+05 1.026327e+05 1.026159e+05 1.026159e+05 1.025018e+05 1.010334e+05 1.011772e+05 1.028083e+05 1.016425e+05 1.028523e+05 1.012526e+05 1.012526e+05 1.024509e+05 1.024527e+05 1.028602e+05 1.022527e+05 1.022527e+05 1.022527e+05 1.022180e+05 1.022180e+05 1.011251e+05 1.011251e+05 1.017836e+05 1.012251e+05 1.013316e+05 1.028436e+05 1.026382e+05 1.026382e+05 1.010932e+05 1.016106e+05 1.020192e+05 1.023480e+05 1.011710e+05 1.020080e+05 1.018797e+05 1.020557e+05 1.021011e+05 1.021011e+05 1.016817e+05 1.028254e+05 1.022679e+05 1.022776e+05 1.028731e+05 1.012846e+05 1.012846e+05 1.012185e+05 1.020589e+05 1.020520e+05 1.020520e+05 1.026923e+05 1.013262e+05 1.013262e+05 1.013262e+05 1.013462e+05 1.028583e+05 1.028611e+05 1.