<?xml version="1.0"?>
 <VTKFile type="UnstructuredGrid" version="1.0" byte_order="LittleEndian" header_type="UInt64">
  <UnstructuredGrid>
    <FieldData>
     <DataArray type="Float64" Name="TimeValue" NumberOfTuples="1" format="ascii">
0.005
     </DataArray>
    </FieldData>
   <Piece NumberOfPoints="3662" NumberOfCells="3444">
    <PointData>
     <DataArray type="Float64" Name="pointP" format="ascii">
1.298315e+05 1.300729e+05 1.304025e+05 1.301712e+05 1.299159e+05 1.300933e+05 1.298621e+05 1.297748e+05 1.297038e+05 1.296935e+05 1.297098e+05 1.296819e+05 1.296992e+05 1.294810e+05 1.295810e+05 1.291937e+05 1.292424e+05 1.290268e+05 1.290606e+05 1.287142e+05 1.286975e+05 1.282021e+05 1.279898e+05 1.285502e+05 1.276918e+05 1.283963e+05 1.274335e+05 1.278621e+05 1.274124e+05 1.267753e+05 1.269816e+05 1.264678e+05 1.267688e+05 1.263356e+05 1.263487e+05 1.255455e+05 1.257252e+05 1.256195e+05 1.248672e+05 1.244556e+05 1.242173e+05 1.239654e+05 1.239443e+05 1.234723e+05 1.232324e+05 1.233869e+05 1.228925e+05 1.224733e+05 1.221015e+05 1.217816e+05 1.214544e+05 1.212728e+05 1.219316e+05 1.209597e+05 1.205640e+05 1.202650e+05 1.198320e+05 1.195339e+05 1.192605e+05 1.190668e+05 1.186548e+05 1.183695e+05 1.178750e+05 1.174936e+05 1.169959e+05 1.167235e+05 1.163086e+05 1.159934e+05 1.156324e+05 1.153146e+05 1.148657e+05 1.145035e+05 1.142009e+05 1.139505e+05 1.135766e+05 1.132955e+05 1.129274e+05 1.125367e+05 1.121358e+05 1.116789e+05 1.113215e+05 1.109859e+05 1.105200e+05 1.101608e+05 1.097872e+05 1.094072e+05 1.090175e+05 1.086370e+05 1.082717e+05 1.079504e+05 1.075917e+05 1.071296e+05 1.067802e+05 1.062945e+05 1.059175e+05 1.055444e+05 1.050621e+05 1.046635e+05 1.043004e+05 1.039309e+05 1.035246e+05 1.031247e+05 1.027489e+05 1.022859e+05 1.019112e+05 1.014163e+05 1.010467e+05 1.006799e+05 1.003185e+05 9.999005e+04 9.965373e+04 9.922678e+04 9.887901e+04 9.850769e+04 9.813555e+04 9.780357e+04 9.731645e+04 9.693860e+04 9.658742e+04 9.620449e+04 9.583329e+04 9.549425e+04 9.507374e+04 9.507374e+04 1.028846e+05 1.044128e+05 1.051551e+05 1.052439e+05 1.054631e+05 1.057504e+05 1.059679e+05 1.059679e+05 1.060038e+05 1.061205e+05 1.062121e+05 1.062121e+05 1.065089e+05 1.065089e+05 1.068387e+05 1.070080e+05 1.070779e+05 1.073297e+05 1.075926e+05 1.082617e+05 1.082617e+05 1.089970e+05 1.089970e+05 1.094042e+05 1.103280e+05 1.105518e+05 1.111575e+05 1.114577e+05 1.123114e+05 1.129133e+05 1.135161e+05 1.145194e+05 1.148109e+05 1.158433e+05 1.168230e+05 1.176092e+05 1.183462e+05 1.183462e+05 1.190937e+05 1.204257e+05 1.204257e+05 1.218324e+05 1.223250e+05 1.223250e+05 1.233069e+05 1.243425e+05 1.243425e+05 1.251779e+05 1.256792e+05 1.264415e+05 1.264415e+05 1.268939e+05 1.277686e+05 1.282166e+05 1.288974e+05 1.291150e+05 1.027779e+05 1.088109e+05 1.088109e+05 1.088109e+05 1.091353e+05 1.069419e+05 1.069419e+05 1.069419e+05 1.074114e+05 1.074114e+05 1.097026e+05 1.097026e+05 1.097026e+05 1.098330e+05 1.096287e+05 1.019369e+05 1.076795e+05 1.076795e+05 1.073260e+05 1.089365e+05 1.089365e+05 1.089365e+05 1.086744e+05 1.084498e+05 1.176165e+05 1.176165e+05 1.176165e+05 1.172830e+05 1.042299e+05 1.042299e+05 1.042299e+05 1.039893e+05 1.037191e+05 1.037191e+05 1.084401e+05 1.084401e+05 1.069486e+05 1.067084e+05 1.027779e+05 1.027779e+05 1.054632e+05 1.054632e+05 1.054632e+05 1.052998e+05 1.049283e+05 1.049283e+05 1.051984e+05 1.077175e+05 1.077175e+05 1.077175e+05 1.077501e+05 1.073197e+05 1.083216e+05 1.082869e+05 1.051496e+05 1.051496e+05 1.051496e+05 1.046186e+05 1.003062e+05 9.904312e+04 9.797910e+04 9.904312e+04 1.153599e+05 1.153599e+05 1.153599e+05 1.183566e+05 1.183566e+05 1.183566e+05 1.176319e+05 9.647983e+04 9.600578e+04 9.647983e+04 9.647983e+04 1.140507e+05 1.140507e+05 1.140507e+05 1.140227e+05 1.205915e+05 1.205915e+05 1.205915e+05 1.204088e+05 1.237691e+05 1.237691e+05 1.237691e+05 1.231286e+05 1.231286e+05 9.857037e+04 9.857037e+04 9.857037e+04 9.832716e+04 1.018318e+05 1.018318e+05 1.018318e+05 1.013239e+05 1.013239e+05 1.270000e+05 1.270000e+05 1.270000e+05 1.272590e+05 1.095771e+05 1.095771e+05 1.095771e+05 1.096266e+05 1.096266e+05 9.479151e+04 9.502091e+04 1.241287e+05 1.241287e+05 1.241287e+05 1.240017e+05 1.259975e+05 1.259975e+05 1.259975e+05 1.263340e+05 1.263340e+05 1.124155e+05 1.124155e+05 1.124155e+05 1.123025e+05 1.251054e+05 1.251054e+05 1.251054e+05 1.248871e+05 9.850769e+04 1.175086e+05 1.175086e+05 1.175086e+05 1.138371e+05 1.138371e+05 1.138371e+05 1.136685e+05 1.104168e+05 1.104168e+05 1.104168e+05 1.102787e+05 1.046635e+05 1.029496e+05 1.029496e+05 1.029496e+05 1.027696e+05 1.080280e+05 1.080280e+05 1.080280e+05 1.080713e+05 1.080713e+05 9.502091e+04 9.502091e+04 9.479151e+04 1.238082e+05 1.238082e+05 1.238082e+05 1.245408e+05 1.245408e+05 1.095701e+05 1.099415e+05 1.099415e+05 1.203084e+05 1.203084e+05 1.203084e+05 1.210246e+05 1.210246e+05 1.195472e+05 1.195472e+05 1.195472e+05 1.197798e+05 9.857251e+04 9.802674e+04 9.857251e+04 9.857251e+04 9.884094e+04 1.072810e+05 1.072810e+05 1.072810e+05 1.077674e+05 1.084398e+05 1.091682e+05 1.091682e+05 1.039663e+05 1.039663e+05 1.029880e+05 1.029880e+05 1.101077e+05 1.101077e+05 1.101077e+05 1.110323e+05 1.110323e+05 1.033443e+05 1.033443e+05 1.033443e+05 1.033068e+05 1.029101e+05 1.062430e+05 1.052385e+05 1.142226e+05 1.142226e+05 1.142226e+05 1.139135e+05 1.168764e+05 1.168764e+05 1.168764e+05 1.164373e+05 1.107300e+05 1.107300e+05 1.107300e+05 1.195113e+05 1.195113e+05 1.195113e+05 1.041692e+05 1.041692e+05 1.041692e+05 1.220472e+05 1.220472e+05 1.220472e+05 9.872644e+04 9.872644e+04 9.872644e+04 9.865459e+04 9.824879e+04 1.046497e+05 1.046497e+05 1.046497e+05 9.949414e+04 9.949414e+04 9.955974e+04 1.122426e+05 1.122426e+05 1.122426e+05 1.126698e+05 1.062120e+05 1.062120e+05 1.062120e+05 1.061812e+05 1.037179e+05 1.037179e+05 1.260986e+05 1.260986e+05 1.260986e+05 1.256967e+05 9.647971e+04 9.647971e+04 9.647971e+04 9.648607e+04 1.005579e+05 1.005579e+05 1.005579e+05 1.006476e+05 1.239554e+05 1.239554e+05 1.239554e+05 1.148974e+05 1.148974e+05 1.148974e+05 1.150233e+05 1.071482e+05 1.071482e+05 1.071482e+05 1.072163e+05 1.069058e+05 1.069058e+05 1.069058e+05 1.067820e+05 1.103311e+05 1.103311e+05 1.103311e+05 1.105856e+05 1.284060e+05 1.284060e+05 1.284060e+05 1.271157e+05 1.271157e+05 1.271157e+05 1.270963e+05 1.259698e+05 1.259698e+05 1.259698e+05 1.257624e+05 1.241762e+05 1.241762e+05 1.240225e+05 1.145602e+05 1.145602e+05 1.145063e+05 1.008602e+05 1.008602e+05 1.009343e+05 1.087357e+05 1.087357e+05 1.087357e+05 1.088947e+05 1.118590e+05 1.118590e+05 1.118590e+05 1.270223e+05 1.270223e+05 1.270015e+05 1.132325e+05 1.132325e+05 1.130633e+05 1.091257e+05 1.251343e+05 1.250933e+05 1.023584e+05 1.023584e+05 1.021142e+05 1.283387e+05 1.283387e+05 1.283387e+05 1.285956e+05 1.114340e+05 1.114340e+05 1.226843e+05 1.226843e+05 1.226843e+05 1.287179e+05 1.287179e+05 1.287179e+05 1.286489e+05 1.286489e+05 1.276530e+05 1.276530e+05 1.276530e+05 1.279451e+05 1.263201e+05 1.263201e+05 1.263201e+05 1.261050e+05 1.261050e+05 1.041186e+05 1.041186e+05 1.041186e+05 1.037607e+05 1.037607e+05 1.263484e+05 1.263484e+05 1.267800e+05 1.267800e+05 1.278061e+05 1.278061e+05 1.278061e+05 1.238404e+05 1.238404e+05 1.238404e+05 1.243849e+05 1.024860e+05 1.024860e+05 1.024860e+05 1.024817e+05 1.024817e+05 9.578562e+04 9.578562e+04 9.578562e+04 9.627753e+04 9.627753e+04 1.079850e+05 1.079850e+05 1.079850e+05 1.088291e+05 1.088291e+05 1.155072e+05 1.155072e+05 1.155072e+05 1.159148e+05 1.159148e+05 1.188807e+05 1.188807e+05 1.188807e+05 1.196661e+05 1.201191e+05 1.201191e+05 1.223273e+05 1.223273e+05 1.223273e+05 1.214833e+05 1.214833e+05 1.004545e+05 1.004545e+05 1.004545e+05 1.008098e+05 1.008098e+05 1.059253e+05 1.059253e+05 1.059253e+05 1.070202e+05 1.070202e+05 1.061411e+05 1.061411e+05 1.050928e+05 1.050928e+05 1.120266e+05 1.120266e+05 1.128595e+05 1.128595e+05 1.062957e+05 1.051946e+05 1.051946e+05 1.111246e+05 1.111246e+05 1.111246e+05 1.113174e+05 1.113174e+05 1.095327e+05 1.095327e+05 1.040670e+05 1.040670e+05 1.040670e+05 1.042844e+05 1.082553e+05 1.012545e+05 1.008639e+05 1.058029e+05 1.058029e+05 1.058029e+05 1.059456e+05 1.059456e+05 1.010819e+05 1.010819e+05 1.005739e+05 1.003695e+05 1.006206e+05 1.208696e+05 1.208696e+05 1.208696e+05 1.203725e+05 1.233704e+05 1.233704e+05 1.229538e+05 1.074503e+05 1.074503e+05 1.074503e+05 9.711754e+04 9.711754e+04 9.711754e+04 9.690063e+04 9.677943e+04 1.272974e+05 1.272974e+05 1.272974e+05 1.107868e+05 1.011972e+05 9.803289e+04 9.803289e+04 1.256164e+05 1.256164e+05 1.163086e+05 1.163970e+05 1.163970e+05 1.163970e+05 1.188478e+05 1.188478e+05 1.188478e+05 1.187509e+05 1.304025e+05 1.295297e+05 1.295297e+05 1.290458e+05 1.290458e+05 1.290458e+05 1.292153e+05 1.044227e+05 1.044227e+05 1.041936e+05 1.055444e+05 1.295201e+05 1.295201e+05 1.273918e+05 1.273918e+05 1.069586e+05 1.069586e+05 9.972816e+04 9.972816e+04 9.972816e+04 1.289648e+05 1.289648e+05 1.291063e+05 9.491272e+04 9.491272e+04 9.524896e+04 1.265126e+05 1.286418e+05 1.283105e+05 1.283105e+05 1.282841e+05 1.157073e+05 1.157073e+05 1.157073e+05 1.156942e+05 1.212728e+05 1.211199e+05 1.301712e+05 1.293535e+05 1.235563e+05 1.235563e+05 1.217678e+05 1.217678e+05 1.217678e+05 1.217665e+05 1.064489e+05 1.064489e+05 1.060955e+05 1.060955e+05 1.138730e+05 1.279654e+05 1.279654e+05 1.276585e+05 1.180505e+05 1.180505e+05 1.180505e+05 9.922678e+04 1.297748e+05 1.290091e+05 1.201050e+05 1.201050e+05 1.201050e+05 1.198864e+05 9.912941e+04 9.912941e+04 9.902586e+04 1.195312e+05 1.195312e+05 1.195396e+05 1.018591e+05 1.018591e+05 1.080233e+05 1.080233e+05 1.292592e+05 1.248672e+05 1.249011e+05 1.191016e+05 1.287970e+05 1.287970e+05 1.224469e+05 1.004918e+05 1.002272e+05 1.002272e+05 1.052268e+05 1.052268e+05 1.049924e+05 1.049924e+05 1.275723e+05 1.275723e+05 1.167504e+05 1.288928e+05 1.150380e+05 1.150380e+05 1.152190e+05 1.206322e+05 1.206322e+05 1.206322e+05 1.293193e+05 1.293193e+05 1.104374e+05 9.784457e+04 9.784457e+04 1.210164e+05 1.209278e+05 1.229022e+05 1.134762e+05 9.549425e+04 9.583329e+04 1.280868e+05 1.185006e+05 9.613595e+04 9.613595e+04 9.613595e+04 9.575464e+04 1.272477e+05 9.520936e+04 1.005291e+05 1.005291e+05 1.224733e+05 1.212637e+05 1.033256e+05 1.033256e+05 1.282809e+05 1.282809e+05 9.716625e+04 9.716625e+04 1.053871e+05 1.174514e+05 1.174514e+05 1.020411e+05 1.053917e+05 1.100524e+05 1.099312e+05 1.168124e+05 1.168124e+05 1.163605e+05 1.163605e+05 1.013218e+05 1.100149e+05 1.290995e+05 9.605925e+04 1.095088e+05 1.220283e+05 1.255904e+05 9.575327e+04 1.028338e+05 1.032371e+05 1.049683e+05 1.215114e+05 1.213841e+05 1.291811e+05 1.291811e+05 1.169119e+05 1.165191e+05 1.239147e+05 1.040269e+05 1.258743e+05 1.258743e+05 1.230253e+05 1.230253e+05 1.230253e+05 1.086106e+05 1.162071e+05 9.969039e+04 1.266412e+05 1.268331e+05 1.268565e+05 1.268565e+05 1.268565e+05 1.204643e+05 1.204643e+05 1.204643e+05 1.206806e+05 1.289436e+05 1.157985e+05 1.157729e+05 1.092959e+05 1.092959e+05 1.092959e+05 1.223016e+05 1.223016e+05 1.223016e+05 1.226595e+05 1.192721e+05 1.192721e+05 1.195808e+05 1.141222e+05 1.138422e+05 1.012989e+05 1.014335e+05 1.003173e+05 1.003173e+05 1.001330e+05 9.764750e+04 9.764750e+04 9.745678e+04 9.745678e+04 1.043466e+05 1.284722e+05 1.077855e+05 1.288964e+05 1.286771e+05 1.284619e+05 1.284619e+05 1.281998e+05 1.281998e+05 1.230232e+05 1.237832e+05 1.128277e+05 1.273161e+05 1.273161e+05 1.231286e+05 1.231286e+05 1.264104e+05 1.112111e+05 1.112111e+05 1.112111e+05 1.249485e+05 1.110695e+05 9.842687e+04 9.842687e+04 9.842687e+04 9.851137e+04 9.851137e+04 1.199696e+05 1.200234e+05 1.285099e+05 1.285099e+05 1.288821e+05 9.675914e+04 9.696439e+04 1.187486e+05 1.187486e+05 1.169005e+05 1.208114e+05 1.274449e+05 9.933634e+04 9.933634e+04 9.933634e+04 9.978799e+04 1.286766e+05 1.286766e+05 1.285128e+05 1.283167e+05 1.278217e+05 1.278217e+05 1.055694e+05 1.055694e+05 1.055694e+05 1.063898e+05 1.007338e+05 1.064735e+05 1.060987e+05 1.060987e+05 1.147603e+05 1.127773e+05 1.127773e+05 1.132705e+05 1.236793e+05 1.230183e+05 1.230183e+05 1.275617e+05 1.275617e+05 9.503386e+04 1.154530e+05 1.154530e+05 1.088128e+05 1.082757e+05 1.082757e+05 1.118768e+05 1.119497e+05 1.154119e+05 1.265379e+05 1.003683e+05 1.003683e+05 1.003683e+05 1.033393e+05 1.274061e+05 1.272383e+05 1.110143e+05 1.110143e+05 1.263699e+05 1.263699e+05 1.263699e+05 1.196874e+05 1.196874e+05 1.196874e+05 1.165929e+05 1.047877e+05 1.190516e+05 1.190516e+05 1.190516e+05 9.721893e+04 1.284266e+05 1.035529e+05 1.042439e+05 1.147512e+05 1.147819e+05 1.147819e+05 1.181288e+05 1.135743e+05 1.277641e+05 1.279089e+05 1.279089e+05 1.125930e+05 1.256233e+05 1.256233e+05 1.255249e+05 1.252190e+05 1.264022e+05 1.259133e+05 1.259133e+05 1.248860e+05 1.185248e+05 1.185248e+05 1.182824e+05 1.182824e+05 1.254501e+05 1.254501e+05 1.248877e+05 1.248877e+05 1.117645e+05 1.279967e+05 1.274896e+05 1.139132e+05 1.139132e+05 1.220323e+05 9.578287e+04 1.227204e+05 1.244282e+05 1.215222e+05 1.215222e+05 1.091619e+05 1.008662e+05 1.198407e+05 1.260635e+05 1.262357e+05 1.262357e+05 1.000911e+05 1.199821e+05 1.199821e+05 1.204709e+05 1.113224e+05 1.113224e+05 1.113224e+05 1.069716e+05 1.174830e+05 9.871673e+04 9.871673e+04 9.886662e+04 1.221826e+05 1.221826e+05 1.194814e+05 1.266820e+05 1.266820e+05 1.266820e+05 1.155978e+05 1.272210e+05 1.167009e+05 1.211000e+05 1.208014e+05 1.133814e+05 1.130593e+05 1.130593e+05 1.053627e+05 1.050261e+05 1.050261e+05 9.770199e+04 9.736361e+04 1.044877e+05 1.040491e+05 1.040491e+05 1.266459e+05 1.266459e+05 1.266459e+05 1.254560e+05 1.249753e+05 1.249753e+05 1.074937e+05 1.269305e+05 1.213283e+05 1.141852e+05 1.141852e+05 9.516447e+04 9.516447e+04 1.020524e+05 1.274924e+05 1.274924e+05 1.086343e+05 1.229778e+05 1.223093e+05 1.223093e+05 1.162155e+05 1.162155e+05 1.219688e+05 1.219688e+05 1.130432e+05 1.121703e+05 1.029691e+05 1.203287e+05 1.269730e+05 1.269730e+05 1.252033e+05 1.189881e+05 1.189881e+05 1.181967e+05 1.181967e+05 9.505605e+04 1.123027e+05 1.056357e+05 1.060704e+05 1.147936e+05 1.143824e+05 1.019069e+05 1.175431e+05 1.175431e+05 1.175431e+05 1.257689e+05 1.257689e+05 1.263425e+05 1.027543e+05 1.027543e+05 1.027543e+05 1.000429e+05 1.000429e+05 1.224570e+05 1.224570e+05 1.230646e+05 1.260476e+05 1.257807e+05 1.109899e+05 1.242821e+05 1.242821e+05 1.239601e+05 1.137678e+05 1.250196e+05 1.250196e+05 1.167745e+05 1.049888e+05 1.049888e+05 1.049888e+05 1.041656e+05 1.194773e+05 9.608730e+04 9.686007e+04 9.769928e+04 9.901469e+04 1.190873e+05 1.185444e+05 1.071113e+05 1.266391e+05 1.252416e+05 1.252416e+05 1.252416e+05 1.253831e+05 1.064621e+05 1.256966e+05 1.230478e+05 1.232566e+05 1.169708e+05 1.169708e+05 1.169708e+05 1.104477e+05 1.104477e+05 1.104477e+05 1.118627e+05 1.118627e+05 1.247465e+05 1.243221e+05 1.243221e+05 1.243221e+05 1.118103e+05 1.213137e+05 1.213137e+05 1.213137e+05 1.131008e+05 1.177830e+05 1.177830e+05 1.177830e+05 1.016318e+05 1.016318e+05 1.016318e+05 9.857482e+04 1.057119e+05 1.232241e+05 1.232241e+05 1.211506e+05 1.253499e+05 1.086994e+05 1.076676e+05 1.076676e+05 1.076676e+05 1.149445e+05 1.226871e+05 1.223504e+05 1.023769e+05 1.018097e+05 1.133538e+05 9.669733e+04 1.235996e+05 1.235996e+05 1.244304e+05 1.243587e+05 1.196053e+05 1.123479e+05 1.236724e+05 1.073476e+05 1.073476e+05 1.112527e+05 1.142803e+05 1.100969e+05 1.100969e+05 1.097754e+05 1.088006e+05 1.005049e+05 1.005049e+05 1.169093e+05 1.169093e+05 1.174905e+05 1.184877e+05 1.227333e+05 1.224659e+05 1.125071e+05 1.132471e+05 1.195820e+05 1.249666e+05 1.245386e+05 1.013218e+05 9.791601e+04 9.791601e+04 9.791601e+04 1.228362e+05 1.228362e+05 1.157873e+05 1.157873e+05 1.152385e+05 1.218778e+05 1.190914e+05 1.184025e+05 1.184025e+05 1.048397e+05 1.048397e+05 1.055856e+05 1.032714e+05 1.032714e+05 1.107820e+05 1.028350e+05 1.020941e+05 1.079495e+05 1.063398e+05 1.084665e+05 1.094399e+05 1.189194e+05 1.159336e+05 1.159336e+05 1.159336e+05 1.172358e+05 1.220520e+05 1.236349e+05 1.121790e+05 1.220087e+05 1.154019e+05 1.154019e+05 1.163861e+05 1.138332e+05 1.138332e+05 1.132450e+05 1.132450e+05 1.093507e+05 1.097419e+05 9.819947e+04 9.864264e+04 1.124726e+05 1.042348e+05 1.148815e+05 1.148815e+05 1.107247e+05 1.107247e+05 1.107247e+05 1.099184e+05 1.214687e+05 1.209002e+05 1.112374e+05 1.014947e+05 1.080050e+05 1.171486e+05 1.121404e+05 1.121404e+05 1.149653e+05 1.149653e+05 1.030326e+05 1.030326e+05 1.137595e+05 1.211550e+05 1.192933e+05 1.192933e+05 1.183318e+05 9.927178e+04 1.148512e+05 1.203399e+05 1.083614e+05 1.083614e+05 1.076529e+05 1.108467e+05 1.114669e+05 1.186453e+05 1.186453e+05 1.085024e+05 1.085024e+05 1.043202e+05 1.032463e+05 1.032463e+05 1.097705e+05 1.171692e+05 1.017998e+05 1.139109e+05 1.162737e+05 1.180765e+05 9.946362e+04 1.039808e+05 1.144988e+05 1.144988e+05 1.161691e+05 1.001141e+05 9.884094e+04 1.022905e+05 1.022905e+05 1.022905e+05 1.033371e+05 1.097819e+05 1.097819e+05 1.158838e+05 1.158838e+05 1.146325e+05 1.146325e+05 1.108551e+05 1.008490e+05 1.002830e+05 1.121439e+05 1.121439e+05 1.121439e+05 1.119211e+05 1.070413e+05 1.070413e+05 1.121681e+05 1.121681e+05 1.098961e+05 1.098961e+05 1.095756e+05 9.877236e+04 9.877236e+04 9.877236e+04 9.804397e+04 1.089056e+05 1.078183e+05 1.078183e+05 1.014326e+05 1.029353e+05 9.904312e+04 9.969151e+04 1.006257e+05 1.006257e+05 1.080658e+05 1.129933e+05 1.046334e+05 1.048291e+05 1.079498e+05 1.038389e+05 1.038389e+05 1.102772e+05 1.100003e+05 1.133640e+05 1.019030e+05 1.019030e+05 1.009739e+05 1.118658e+05 1.118658e+05 1.104789e+05 1.017301e+05 1.009519e+05 1.009519e+05 1.009519e+05 1.000907e+05 1.095488e+05 1.004153e+05 1.025947e+05 1.065590e+05 1.004153e+05 1.032916e+05 1.012595e+05 1.012595e+05 1.057243e+05 1.053345e+05 1.029096e+05 1.025650e+05 1.054301e+05 1.054301e+05 1.054301e+05 1.025863e+05 1.060825e+05 1.060825e+05 1.060825e+05 1.048311e+05 1.048311e+05 1.040333e+05 1.030131e+05 1.053318e+05 1.035820e+05 1.033040e+05 1.047091e+05 1.038629e+05 1.043363e+05 1.052617e+05 1.052617e+05 1.028694e+05 1.028694e+05 1.033915e+05 1.054153e+05 1.054153e+05 1.054153e+05 1.056552e+05 1.056552e+05 1.046636e+05 1.046636e+05 1.046636e+05 1.168439e+05 1.174660e+05 1.174660e+05 1.174660e+05 1.019369e+05 1.019369e+05 1.176939e+05 1.176939e+05 1.176939e+05 1.183401e+05 1.183401e+05 1.031628e+05 1.024343e+05 1.164389e+05 1.164389e+05 1.158935e+05 1.018841e+05 1.187686e+05 1.183094e+05 1.184604e+05 1.012545e+05 1.021892e+05 1.023988e+05 1.061135e+05 1.061135e+05 1.062667e+05 1.264412e+05 1.111235e+05 1.111235e+05 1.111235e+05 1.099835e+05 1.146026e+05 1.146026e+05 1.146026e+05 1.149723e+05 1.145371e+05 1.145371e+05 1.230019e+05 1.121179e+05 1.121179e+05 1.121179e+05 1.119936e+05 1.073328e+05 1.256846e+05 1.256846e+05 1.256846e+05 1.144235e+05 1.220314e+05 1.220314e+05 1.199377e+05 1.199377e+05 1.199377e+05 1.133216e+05 1.133216e+05 1.133216e+05 1.153359e+05 1.134316e+05 1.134316e+05 1.137243e+05 1.163128e+05 1.109427e+05 1.137030e+05 1.129229e+05 1.125831e+05 1.104433e+05 1.096259e+05 1.116866e+05 1.089829e+05 1.080083e+05 1.088463e+05 1.088463e+05 1.076830e+05 1.076830e+05 1.076830e+05 1.059679e+05 1.243547e+05 1.159046e+05 1.159046e+05 1.134932e+05 1.123931e+05 1.106105e+05 1.106105e+05 1.216698e+05 1.216698e+05 1.189988e+05 1.189988e+05 1.164604e+05 1.152818e+05 1.116606e+05 1.095269e+05 1.077455e+05 1.077455e+05 1.062034e+05 1.067665e+05 1.242068e+05 1.242068e+05 1.102863e+05 1.080394e+05 1.080394e+05 1.089391e+05 1.081478e+05 1.075485e+05 1.068821e+05 1.068821e+05 1.068821e+05 1.069869e+05 1.069869e+05 1.066934e+05 1.065247e+05 1.065247e+05 1.065247e+05 1.078558e+05 1.078558e+05 1.024305e+05 1.062985e+05 1.062985e+05 1.064560e+05 1.062181e+05 1.062181e+05 1.027039e+05 1.034442e+05 1.027256e+05 1.061122e+05 1.061122e+05 1.061122e+05 1.059581e+05 1.066715e+05 1.044615e+05 1.060484e+05 1.182200e+05 1.056247e+05 1.052235e+05 1.058154e+05 1.057504e+05 1.190432e+05 1.209242e+05 1.209242e+05 1.222182e+05 1.222182e+05 1.236062e+05 1.236062e+05 1.236062e+05 1.246514e+05 1.250348e+05 1.250348e+05 1.250348e+05 1.272511e+05 1.060220e+05 1.062663e+05 1.062663e+05 1.062663e+05 1.065129e+05 1.068442e+05 1.070616e+05 1.101030e+05 1.067519e+05 1.071197e+05 1.072840e+05 1.071948e+05 1.076623e+05 1.074889e+05 1.070371e+05 1.063307e+05 1.067368e+05 1.064017e+05 1.064017e+05 1.061363e+05 1.061363e+05 1.067564e+05 1.063842e+05 1.060398e+05 1.059260e+05 1.193558e+05 1.203275e+05 1.244392e+05 1.282679e+05 1.298315e+05 1.298601e+05 1.299675e+05 1.301503e+05 1.298969e+05 1.298075e+05 1.297301e+05 1.296083e+05 1.295685e+05 1.295869e+05 1.295617e+05 1.044992e+05 1.044992e+05 1.052983e+05 1.052983e+05 1.055032e+05 1.057703e+05 1.059540e+05 1.059540e+05 1.059540e+05 1.059691e+05 1.056927e+05 1.056927e+05 1.052566e+05 1.052566e+05 1.052566e+05 1.076727e+05 1.076727e+05 1.076727e+05 1.078796e+05 1.078796e+05 1.051121e+05 1.051121e+05 1.051121e+05 1.053554e+05 1.044992e+05 1.044851e+05 1.044851e+05 1.059351e+05 1.065572e+05 1.065572e+05 1.287834e+05 1.287834e+05 1.287834e+05 1.291938e+05 1.291938e+05 1.052421e+05 1.056234e+05 1.056234e+05 1.289792e+05 1.289792e+05 1.287611e+05 1.223109e+05 1.223109e+05 1.223109e+05 1.182525e+05 1.182525e+05 1.182525e+05 1.172459e+05 1.172459e+05 1.061998e+05 1.266631e+05 1.266631e+05 1.266631e+05 1.264249e+05 1.293281e+05 1.293281e+05 1.293281e+05 1.291466e+05 1.288928e+05 1.279665e+05 1.279665e+05 1.279665e+05 1.292497e+05 1.288083e+05 1.288083e+05 1.288083e+05 1.289545e+05 1.202222e+05 1.213202e+05 1.202222e+05 1.202222e+05 1.083071e+05 1.083071e+05 1.043610e+05 1.228685e+05 1.228685e+05 1.292654e+05 1.295869e+05 1.292002e+05 1.292002e+05 1.289545e+05 1.282166e+05 1.277686e+05 1.288539e+05 1.286761e+05 1.282176e+05 1.282176e+05 1.282086e+05 1.278750e+05 1.283401e+05 1.282086e+05 1.279773e+05 1.271708e+05 1.271708e+05 1.273445e+05 1.273445e+05 1.276198e+05 1.269979e+05 1.269831e+05 1.265624e+05 1.265624e+05 1.261971e+05 1.265429e+05 1.255894e+05 1.245150e+05 1.245150e+05 1.213202e+05 1.188972e+05 1.188972e+05 1.178603e+05 1.178603e+05 1.170234e+05 1.162771e+05 1.139673e+05 1.069911e+05 1.043610e+05 1.043610e+05 1.064334e+05 1.064334e+05 1.064334e+05 1.063457e+05 1.055688e+05 1.066343e+05 1.066343e+05 1.066343e+05 1.065883e+05 1.072877e+05 1.072877e+05 1.072877e+05 1.071883e+05 1.070080e+05 1.094269e+05 1.094269e+05 1.094269e+05 1.097657e+05 1.122543e+05 1.122543e+05 1.122543e+05 1.121106e+05 1.115730e+05 1.099289e+05 1.099289e+05 1.095814e+05 1.153716e+05 1.153716e+05 1.153716e+05 1.158433e+05 1.158433e+05 1.144354e+05 1.144354e+05 1.144354e+05 1.079730e+05 1.079730e+05 1.142445e+05 1.142445e+05 1.142445e+05 1.138267e+05 1.138267e+05 1.200469e+05 1.200469e+05 1.200469e+05 1.175171e+05 1.175171e+05 1.175171e+05 1.125891e+05 1.125891e+05 1.125891e+05 1.071923e+05 1.172819e+05 1.168656e+05 1.140406e+05 1.135161e+05 1.199116e+05 1.179291e+05 1.179291e+05 1.118596e+05 1.118596e+05 1.138619e+05 1.130759e+05 1.161288e+05 1.161288e+05 1.161288e+05 1.199334e+05 1.228685e+05 1.140547e+05 1.109500e+05 1.109500e+05 1.109500e+05 1.157780e+05 1.130341e+05 1.110955e+05 1.100703e+05 1.090885e+05 1.118560e+05 1.090814e+05 1.088108e+05 1.086637e+05 1.086637e+05 1.059634e+05 1.233069e+05 1.233069e+05 1.171140e+05 1.105518e+05 1.105518e+05 1.158039e+05 1.253205e+05 1.095520e+05 1.095520e+05 1.081587e+05 1.081587e+05 1.081587e+05 1.147181e+05 1.180914e+05 1.082951e+05 1.093752e+05 1.082527e+05 1.076679e+05 1.076070e+05 1.076070e+05 1.076070e+05 1.071018e+05 1.071018e+05 1.073496e+05 1.072390e+05 1.072390e+05 1.068487e+05 1.067786e+05 1.061998e+05 1.065422e+05 1.065422e+05 1.058820e+05 1.060852e+05 1.177015e+05 1.224239e+05 1.224239e+05 1.247160e+05 1.247160e+05 1.205693e+05 1.056130e+05 1.111575e+05 1.167612e+05 1.183462e+05 1.187431e+05 1.199642e+05 1.199642e+05 1.213674e+05 1.213674e+05 1.213674e+05 1.225940e+05 1.235794e+05 1.243425e+05 1.251779e+05 1.251779e+05 1.252019e+05 1.275092e+05 1.082617e+05 1.089970e+05 1.195542e+05 1.256792e+05 1.094042e+05 1.099541e+05 1.080814e+05 1.075926e+05 1.084264e+05 1.076845e+05 1.068387e+05 1.089394e+05 1.069533e+05 1.069533e+05 1.067315e+05 1.066891e+05 1.062121e+05 1.061996e+05 1.061996e+05 1.061205e+05 1.063687e+05 1.064055e+05 1.187055e+05 1.207553e+05 1.231134e+05 1.259765e+05 1.231123e+05 1.239851e+05 1.211002e+05 1.255694e+05 1.239659e+05 1.060514e+05 1.052983e+05 1.298315e+05 1.300729e+05 1.304025e+05 1.301712e+05 1.299159e+05 1.300933e+05 1.298621e+05 1.297748e+05 1.297038e+05 1.296935e+05 1.297098e+05 1.296819e+05 1.296992e+05 1.294810e+05 1.295810e+05 1.291937e+05 1.292424e+05 1.290268e+05 1.290606e+05 1.287142e+05 1.286975e+05 1.282021e+05 1.279898e+05 1.285502e+05 1.276918e+05 1.283963e+05 1.274335e+05 1.278621e+05 1.274124e+05 1.267753e+05 1.269816e+05 1.264678e+05 1.267688e+05 1.263356e+05 1.263487e+05 1.255455e+05 1.257252e+05 1.256195e+05 1.248672e+05 1.244556e+05 1.242173e+05 1.239654e+05 1.239443e+05 1.234723e+05 1.232324e+05 1.233869e+05 1.228925e+05 1.224733e+05 1.221015e+05 1.217816e+05 1.214544e+05 1.212728e+05 1.219316e+05 1.209597e+05 1.205640e+05 1.202650e+05 1.198320e+05 1.195339e+05 1.192605e+05 1.190668e+05 1.186548e+05 1.183695e+05 1.178750e+05 1.174936e+05 1.169959e+05 1.167235e+05 1.163086e+05 1.159934e+05 1.156324e+05 1.153146e+05 1.148657e+05 1.145035e+05 1.142009e+05 1.139505e+05 1.135766e+05 1.132955e+05 1.129274e+05 1.125367e+05 1.121358e+05 1.116789e+05 1.113215e+05 1.109859e+05 1.105200e+05 1.101608e+05 1.097872e+05 1.094072e+05 1.090175e+05 1.086370e+05 1.082717e+05 1.079504e+05 1.075917e+05 1.071296e+05 1.067802e+05 1.062945e+05 1.059175e+05 1.055444e+05 1.050621e+05 1.046635e+05 1.043004e+05 1.039309e+05 1.035246e+05 1.031247e+05 1.027489e+05 1.022859e+05 1.019112e+05 1.014163e+05 1.010467e+05 1.006799e+05 1.003185e+05 9.999005e+04 9.965373e+04 9.922678e+04 9.887901e+04 9.850769e+04 9.813555e+04 9.780357e+04 9.731645e+04 9.693860e+04 9.658742e+04 9.620449e+04 9.583329e+04 9.549425e+04 9.507374e+04 9.507374e+04 1.028846e+05 1.028846e+05 1.050615e+05 1.052439e+05 1.054631e+05 1.057504e+05 1.059679e+05 1.059679e+05 1.060038e+05 1.061205e+05 1.062121e+05 1.062121e+05 1.065089e+05 1.065089e+05 1.068387e+05 1.070080e+05 1.070779e+05 1.073297e+05 1.075926e+05 1.082617e+05 1.082617e+05 1.089970e+05 1.089970e+05 1.094042e+05 1.103280e+05 1.105518e+05 1.111575e+05 1.114577e+05 1.123114e+05 1.129133e+05 1.135161e+05 1.145194e+05 1.148109e+05 1.158433e+05 1.168230e+05 1.176092e+05 1.183462e+05 1.183462e+05 1.190937e+05 1.204257e+05 1.204257e+05 1.218324e+05 1.223250e+05 1.223250e+05 1.233069e+05 1.243425e+05 1.243425e+05 1.251779e+05 1.256792e+05 1.264415e+05 1.264415e+05 1.268939e+05 1.277686e+05 1.282166e+05 1.288974e+05 1.291150e+05 1.027779e+05 1.088109e+05 1.088109e+05 1.088109e+05 1.091353e+05 1.069419e+05 1.069419e+05 1.069419e+05 1.074114e+05 1.074114e+05 1.097026e+05 1.097026e+05 1.097026e+05 1.098330e+05 1.096287e+05 1.019369e+05 1.076795e+05 1.076795e+05 1.073260e+05 1.089365e+05 1.089365e+05 1.089365e+05 1.086744e+05 1.084498e+05 1.176165e+05 1.176165e+05 1.176165e+05 1.172830e+05 1.042299e+05 1.042299e+05 1.042299e+05 1.039893e+05 1.037191e+05 1.037191e+05 1.084401e+05 1.084401e+05 1.069486e+05 1.067084e+05 1.027779e+05 1.027779e+05 1.054632e+05 1.054632e+05 1.054632e+05 1.052998e+05 1.049283e+05 1.049283e+05 1.051984e+05 1.077175e+05 1.077175e+05 1.077175e+05 1.077501e+05 1.073197e+05 1.083216e+05 1.082869e+05 1.051496e+05 1.051496e+05 1.051496e+05 1.046186e+05 1.003062e+05 9.904312e+04 9.797910e+04 9.904312e+04 1.153599e+05 1.153599e+05 1.153599e+05 1.183566e+05 1.183566e+05 1.183566e+05 1.176319e+05 9.647983e+04 9.600578e+04 9.647983e+04 9.647983e+04 1.140507e+05 1.140507e+05 1.140507e+05 1.140227e+05 1.205915e+05 1.205915e+05 1.205915e+05 1.204088e+05 1.237691e+05 1.237691e+05 1.237691e+05 1.231286e+05 1.231286e+05 9.857037e+04 9.857037e+04 9.857037e+04 9.832716e+04 1.018318e+05 1.018318e+05 1.018318e+05 1.013239e+05 1.013239e+05 1.270000e+05 1.270000e+05 1.270000e+05 1.272590e+05 1.095771e+05 1.095771e+05 1.095771e+05 1.096266e+05 1.096266e+05 9.479151e+04 9.502091e+04 1.241287e+05 1.241287e+05 1.241287e+05 1.240017e+05 1.259975e+05 1.259975e+05 1.259975e+05 1.263340e+05 1.263340e+05 1.124155e+05 1.124155e+05 1.124155e+05 1.123025e+05 1.251054e+05 1.251054e+05 1.251054e+05 1.248871e+05 9.850769e+04 1.175086e+05 1.175086e+05 1.175086e+05 1.138371e+05 1.138371e+05 1.138371e+05 1.136685e+05 1.104168e+05 1.104168e+05 1.104168e+05 1.102787e+05 1.046635e+05 1.029496e+05 1.029496e+05 1.029496e+05 1.027696e+05 1.080280e+05 1.080280e+05 1.080280e+05 1.080713e+05 1.080713e+05 9.502091e+04 9.502091e+04 9.479151e+04 1.238082e+05 1.238082e+05 1.238082e+05 1.245408e+05 1.245408e+05 1.095701e+05 1.099415e+05 1.099415e+05 1.203084e+05 1.203084e+05 1.203084e+05 1.210246e+05 1.210246e+05 1.195472e+05 1.195472e+05 1.195472e+05 1.197798e+05 9.857251e+04 9.802674e+04 9.857251e+04 9.857251e+04 9.884094e+04 1.072810e+05 1.072810e+05 1.072810e+05 1.077674e+05 1.084398e+05 1.091682e+05 1.091682e+05 1.039663e+05 1.039663e+05 1.029880e+05 1.029880e+05 1.101077e+05 1.101077e+05 1.101077e+05 1.110323e+05 1.110323e+05 1.033443e+05 1.033443e+05 1.033443e+05 1.033068e+05 1.029101e+05 1.062430e+05 1.052385e+05 1.142226e+05 1.142226e+05 1.142226e+05 1.139135e+05 1.168764e+05 1.168764e+05 1.168764e+05 1.164373e+05 1.107300e+05 1.107300e+05 1.107300e+05 1.195113e+05 1.195113e+05 1.195113e+05 1.041692e+05 1.041692e+05 1.041692e+05 1.220472e+05 1.220472e+05 1.220472e+05 9.872644e+04 9.872644e+04 9.872644e+04 9.865459e+04 9.824879e+04 1.046497e+05 1.046497e+05 1.046497e+05 9.949414e+04 9.949414e+04 9.955974e+04 1.122426e+05 1.122426e+05 1.122426e+05 1.126698e+05 1.062120e+05 1.062120e+05 1.062120e+05 1.061812e+05 1.037179e+05 1.037179e+05 1.260986e+05 1.260986e+05 1.260986e+05 1.256967e+05 9.647971e+04 9.647971e+04 9.647971e+04 9.648607e+04 1.005579e+05 1.005579e+05 1.005579e+05 1.006476e+05 1.239554e+05 1.239554e+05 1.239554e+05 1.148974e+05 1.148974e+05 1.148974e+05 1.150233e+05 1.071482e+05 1.071482e+05 1.071482e+05 1.072163e+05 1.069058e+05 1.069058e+05 1.069058e+05 1.067820e+05 1.103311e+05 1.103311e+05 1.103311e+05 1.105856e+05 1.