<?xml version="1.0"?>
 <VTKFile type="UnstructuredGrid" version="1.0" byte_order="LittleEndian" header_type="UInt64">
  <UnstructuredGrid>
    <FieldData>
     <DataArray type="Float64" Name="TimeValue" NumberOfTuples="1" format="ascii">
0.00019
     </DataArray>
    </FieldData>
   <Piece NumberOfPoints="3632" NumberOfCells="3379">
    <PointData>
     <DataArray type="Float64" Name="pointP" format="ascii">
1.446291e+05 1.446291e+05 1.444972e+05 1.442958e+05 1.442015e+05 1.440854e+05 1.438974e+05 1.436779e+05 1.434986e+05 1.433106e+05 1.431068e+05 1.428966e+05 1.426751e+05 1.424430e+05 1.422444e+05 1.419046e+05 1.416829e+05 1.414706e+05 1.411763e+05 1.408861e+05 1.406278e+05 1.403162e+05 1.400041e+05 1.396745e+05 1.393323e+05 1.389420e+05 1.386076e+05 1.382912e+05 1.379312e+05 1.375045e+05 1.371738e+05 1.367579e+05 1.363781e+05 1.359102e+05 1.354282e+05 1.351050e+05 1.346850e+05 1.342424e+05 1.337242e+05 1.333151e+05 1.328613e+05 1.323817e+05 1.319486e+05 1.314184e+05 1.309094e+05 1.304524e+05 1.299994e+05 1.295202e+05 1.289005e+05 1.281751e+05 1.277289e+05 1.272097e+05 1.266789e+05 1.261845e+05 1.255723e+05 1.250824e+05 1.245328e+05 1.240017e+05 1.234356e+05 1.228637e+05 1.223088e+05 1.217423e+05 1.211080e+05 1.205539e+05 1.199838e+05 1.193613e+05 1.186733e+05 1.181123e+05 1.175377e+05 1.169538e+05 1.162917e+05 1.156922e+05 1.150853e+05 1.144849e+05 1.138115e+05 1.132184e+05 1.125504e+05 1.119136e+05 1.112624e+05 1.106946e+05 1.099635e+05 1.093004e+05 1.086535e+05 1.079819e+05 1.073807e+05 1.067598e+05 1.061371e+05 1.055094e+05 1.048029e+05 1.041402e+05 1.035031e+05 1.028597e+05 1.022903e+05 1.016225e+05 1.009745e+05 1.003901e+05 9.971601e+04 9.908909e+04 9.848129e+04 9.772551e+04 9.712499e+04 9.651316e+04 9.595461e+04 9.523744e+04 9.463217e+04 9.403535e+04 9.343261e+04 9.278680e+04 9.218448e+04 9.160795e+04 9.103321e+04 9.044570e+04 8.986546e+04 8.918749e+04 8.859200e+04 8.793026e+04 8.734371e+04 8.680747e+04 8.621508e+04 8.563971e+04 8.510711e+04 8.455687e+04 8.398565e+04 8.342938e+04 8.289861e+04 8.232034e+04 8.184328e+04 8.127716e+04 8.072631e+04 8.024540e+04 7.977126e+04 7.913587e+04 7.868914e+04 7.822156e+04 7.781017e+04 7.727289e+04 7.679648e+04 7.640348e+04 7.586778e+04 7.548067e+04 7.507628e+04 7.454342e+04 7.415295e+04 7.372270e+04 7.327571e+04 7.290533e+04 7.251892e+04 7.210452e+04 7.169932e+04 7.139984e+04 7.106340e+04 7.063788e+04 7.027788e+04 6.995395e+04 6.959092e+04 6.929080e+04 6.902611e+04 6.860446e+04 6.833190e+04 6.803942e+04 6.778214e+04 6.747081e+04 6.723052e+04 6.695644e+04 6.670711e+04 6.650186e+04 6.630204e+04 6.611715e+04 6.591587e+04 6.575839e+04 6.549209e+04 6.531866e+04 6.514788e+04 6.500526e+04 6.489037e+04 6.471252e+04 6.459696e+04 6.447361e+04 6.433853e+04 6.425096e+04 6.419169e+04 1.025671e+05 1.025671e+05 1.025671e+05 1.042039e+05 1.042039e+05 1.042039e+05 1.045982e+05 1.042723e+05 1.063605e+05 1.052243e+05 1.086330e+05 1.086330e+05 1.086330e+05 1.085713e+05 9.656145e+04 9.656145e+04 9.656145e+04 9.649141e+04 9.715198e+04 1.316142e+05 1.316142e+05 1.316142e+05 1.315284e+05 1.311843e+05 1.311843e+05 1.311843e+05 1.303687e+05 9.937579e+04 9.937579e+04 9.937579e+04 1.000185e+05 1.005626e+05 1.005389e+05 7.878700e+04 7.878700e+04 7.878700e+04 7.781749e+04 7.781749e+04 1.302773e+05 1.302773e+05 1.302773e+05 1.297150e+05 7.298731e+04 7.298731e+04 7.298731e+04 7.209547e+04 7.209547e+04 1.426327e+05 1.426327e+05 1.426327e+05 1.136632e+05 1.136632e+05 1.136632e+05 1.140520e+05 1.075806e+05 1.075806e+05 1.075806e+05 1.278756e+05 1.278756e+05 1.278756e+05 1.278439e+05 8.021009e+04 8.021009e+04 8.027374e+04 8.027374e+04 1.159156e+05 1.159156e+05 1.163980e+05 1.288762e+05 1.288762e+05 1.288762e+05 1.294925e+05 1.294925e+05 6.867586e+04 6.867586e+04 6.867586e+04 6.950275e+04 6.950275e+04 9.908530e+04 9.908530e+04 9.908530e+04 9.814107e+04 9.814107e+04 1.325863e+05 1.325863e+05 1.167679e+05 1.167679e+05 1.167679e+05 1.169156e+05 1.076973e+05 1.076973e+05 1.076973e+05 1.074324e+05 1.074924e+05 1.181141e+05 1.181141e+05 1.181141e+05 1.146253e+05 1.146253e+05 1.148694e+05 1.351050e+05 1.353370e+05 1.353370e+05 6.500526e+04 6.550998e+04 6.550998e+04 1.070523e+05 8.289861e+04 8.332056e+04 1.076217e+05 1.039850e+05 1.039850e+05 1.039850e+05 1.045935e+05 9.870612e+04 1.039437e+05 1.039437e+05 1.039437e+05 1.050079e+05 1.050079e+05 9.552307e+04 9.552307e+04 9.552307e+04 9.641121e+04 8.829836e+04 8.829836e+04 8.829836e+04 8.812453e+04 1.304968e+05 1.302777e+05 1.293124e+05 1.325665e+05 1.325665e+05 1.054513e+05 1.054513e+05 1.054513e+05 1.060463e+05 1.205408e+05 1.205408e+05 1.205408e+05 1.212764e+05 1.212764e+05 1.205877e+05 8.409571e+04 8.409571e+04 8.409571e+04 8.368951e+04 8.822742e+04 8.822742e+04 8.822742e+04 8.901633e+04 8.947692e+04 1.155506e+05 1.155506e+05 1.155506e+05 1.156181e+05 7.131749e+04 6.929567e+04 9.470443e+04 9.470443e+04 9.470443e+04 9.543668e+04 7.961243e+04 7.961243e+04 7.961243e+04 7.987805e+04 1.253845e+05 1.253845e+05 1.253845e+05 1.263060e+05 1.263060e+05 7.542486e+04 7.542486e+04 7.542486e+04 7.581752e+04 1.250438e+05 1.250438e+05 1.250438e+05 1.247819e+05 1.303827e+05 1.303827e+05 1.303827e+05 1.303560e+05 8.410486e+04 8.410486e+04 8.404024e+04 1.081927e+05 1.081927e+05 1.098801e+05 1.098801e+05 1.098801e+05 1.046700e+05 1.046700e+05 1.046700e+05 1.043821e+05 6.530340e+04 6.530340e+04 6.530340e+04 6.521548e+04 6.521548e+04 1.391324e+05 1.391324e+05 1.391324e+05 1.387501e+05 1.387501e+05 1.086272e+05 1.241330e+05 1.241330e+05 1.245375e+05 6.476171e+04 6.476171e+04 6.476171e+04 6.469697e+04 6.992882e+04 6.992882e+04 7.034070e+04 7.034070e+04 1.333685e+05 1.333685e+05 1.336716e+05 1.288604e+05 1.288604e+05 6.836119e+04 6.836119e+04 6.875261e+04 6.875261e+04 1.266611e+05 1.266611e+05 1.266611e+05 1.263985e+05 1.072076e+05 1.068392e+05 1.155593e+05 1.155593e+05 1.155593e+05 1.151669e+05 1.195322e+05 1.195322e+05 1.195322e+05 1.188222e+05 1.188222e+05 6.706597e+04 6.706597e+04 6.706597e+04 6.706622e+04 6.706622e+04 1.171111e+05 1.177392e+05 1.420442e+05 1.420442e+05 1.420442e+05 1.419439e+05 7.130768e+04 7.130768e+04 7.130768e+04 7.057520e+04 7.057520e+04 7.138643e+04 7.165570e+04 1.090534e+05 1.090534e+05 1.090534e+05 1.084091e+05 1.084091e+05 1.011160e+05 1.013742e+05 1.013742e+05 8.072195e+04 8.072195e+04 8.072195e+04 8.103349e+04 8.103349e+04 8.406096e+04 8.406096e+04 8.406096e+04 8.351806e+04 8.351806e+04 7.412520e+04 7.412520e+04 7.500379e+04 7.500379e+04 1.082927e+05 1.082927e+05 1.076473e+05 7.602729e+04 7.602729e+04 7.585088e+04 7.585088e+04 8.327583e+04 8.327583e+04 8.327583e+04 8.461813e+04 9.621549e+04 9.621549e+04 9.621549e+04 9.486148e+04 9.486148e+04 1.276846e+05 1.300346e+05 1.242103e+05 1.045116e+05 1.045116e+05 1.045116e+05 1.054369e+05 1.054369e+05 1.075832e+05 1.075832e+05 1.080484e+05 1.026819e+05 1.026819e+05 1.025237e+05 1.016343e+05 1.092095e+05 1.092095e+05 1.092095e+05 1.083464e+05 1.083464e+05 1.083464e+05 1.122467e+05 1.122467e+05 1.122467e+05 9.618761e+04 9.693250e+04 1.057557e+05 1.124904e+05 1.124904e+05 1.124904e+05 1.115569e+05 1.158211e+05 1.158211e+05 1.158211e+05 1.158422e+05 1.158422e+05 1.158422e+05 1.152718e+05 8.676184e+04 8.676184e+04 8.676184e+04 9.667161e+04 9.667161e+04 9.667161e+04 1.107600e+05 1.107600e+05 1.107600e+05 1.256511e+05 1.256511e+05 1.257713e+05 8.138645e+04 8.713299e+04 8.713299e+04 1.319411e+05 1.319411e+05 1.319411e+05 1.331717e+05 1.331717e+05 1.052618e+05 1.052618e+05 6.738719e+04 6.826158e+04 6.929567e+04 1.365462e+05 1.365462e+05 1.365462e+05 1.359969e+05 8.970946e+04 8.970946e+04 8.970946e+04 1.070783e+05 1.069956e+05 1.065529e+05 9.616772e+04 9.616772e+04 9.616772e+04 7.991274e+04 7.991274e+04 7.991274e+04 7.973907e+04 7.933075e+04 1.089346e+05 1.089346e+05 1.089346e+05 1.402040e+05 1.402040e+05 1.402040e+05 1.401756e+05 1.201014e+05 1.201014e+05 1.201014e+05 1.198294e+05 1.405420e+05 1.405420e+05 1.405420e+05 1.155133e+05 1.000912e+05 1.000912e+05 1.020430e+05 1.020430e+05 1.020430e+05 1.018237e+05 1.019938e+05 6.594750e+04 6.594750e+04 6.628373e+04 6.508648e+04 6.498941e+04 1.277112e+05 1.277112e+05 8.317976e+04 8.317976e+04 8.317976e+04 8.351402e+04 6.718385e+04 6.718385e+04 6.718385e+04 6.753887e+04 1.205539e+05 1.205667e+05 1.205667e+05 9.397402e+04 9.397402e+04 9.397402e+04 9.379925e+04 6.965022e+04 9.741132e+04 9.741132e+04 9.744393e+04 1.303879e+05 1.303879e+05 1.303879e+05 1.394663e+05 1.394663e+05 1.376135e+05 1.376135e+05 1.376135e+05 1.380104e+05 1.412166e+05 1.412166e+05 1.412166e+05 1.409702e+05 1.409702e+05 1.411287e+05 1.353412e+05 1.353412e+05 1.013220e+05 7.814300e+04 7.814300e+04 7.860313e+04 9.433835e+04 1.438332e+05 1.432875e+05 1.438332e+05 1.438332e+05 1.230242e+05 1.230242e+05 1.230242e+05 1.223700e+05 1.223700e+05 1.311991e+05 1.311991e+05 1.315554e+05 1.315554e+05 1.269072e+05 1.269072e+05 1.269072e+05 1.278619e+05 1.278619e+05 1.050870e+05 1.050870e+05 1.050870e+05 1.056699e+05 1.056699e+05 1.373515e+05 1.373515e+05 1.373515e+05 1.359616e+05 1.359616e+05 1.170951e+05 1.170951e+05 1.170951e+05 1.068683e+05 7.133202e+04 7.133202e+04 7.133202e+04 7.282445e+04 7.282445e+04 7.929872e+04 7.929872e+04 7.929872e+04 8.107861e+04 8.107861e+04 8.905606e+04 8.905606e+04 8.905606e+04 9.072236e+04 9.072236e+04 1.322175e+05 1.322175e+05 1.322175e+05 1.082789e+05 1.082789e+05 1.082789e+05 1.090608e+05 1.090608e+05 9.435244e+04 9.650163e+04 8.964646e+04 8.964646e+04 8.964646e+04 8.867458e+04 1.072625e+05 1.072625e+05 1.069400e+05 1.017116e+05 1.017116e+05 1.016778e+05 1.016778e+05 1.025663e+05 1.032303e+05 1.127119e+05 1.103659e+05 1.127119e+05 1.127119e+05 1.063605e+05 1.063605e+05 1.038449e+05 1.159520e+05 1.167861e+05 1.355023e+05 1.355023e+05 1.355023e+05 1.349433e+05 1.352530e+05 9.350327e+04 9.350327e+04 9.350327e+04 9.286603e+04 7.958117e+04 8.213552e+04 6.586318e+04 6.586318e+04 6.586318e+04 6.615428e+04 1.248495e+05 1.249939e+05 1.249670e+05 1.019806e+05 1.019806e+05 1.017842e+05 6.749613e+04 6.904744e+04 6.904744e+04 6.929396e+04 6.971599e+04 7.905994e+04 7.926062e+04 7.927674e+04 9.211060e+04 9.211060e+04 9.211060e+04 9.195028e+04 7.222032e+04 7.222032e+04 7.222032e+04 7.178452e+04 1.024839e+05 7.251892e+04 7.304037e+04 7.304037e+04 1.170338e+05 1.170338e+05 1.170338e+05 9.146277e+04 1.368351e+05 1.368351e+05 9.532862e+04 9.532862e+04 9.532862e+04 1.211526e+05 6.795388e+04 6.795388e+04 9.336618e+04 9.040420e+04 9.040420e+04 9.040420e+04 9.021920e+04 8.061436e+04 6.564358e+04 6.564358e+04 6.581986e+04 6.902611e+04 1.036900e+05 1.036900e+05 7.490736e+04 7.490736e+04 7.490736e+04 7.451836e+04 1.338798e+05 1.341417e+05 1.341417e+05 1.187745e+05 7.169116e+04 7.169116e+04 7.157102e+04 1.360858e+05 1.360858e+05 1.343325e+05 1.253796e+05 8.563971e+04 8.586356e+04 8.586356e+04 1.430416e+05 1.430416e+05 8.440680e+04 1.385942e+05 1.385942e+05 8.774591e+04 8.774591e+04 8.774591e+04 8.723292e+04 7.825629e+04 7.825629e+04 8.217815e+04 8.217815e+04 6.717158e+04 6.578337e+04 1.136507e+05 1.134087e+05 7.327571e+04 7.385935e+04 7.385935e+04 1.055094e+05 1.058044e+05 1.058044e+05 6.627880e+04 6.627880e+04 6.645683e+04 6.645683e+04 1.308231e+05 1.064101e+05 1.433764e+05 1.433764e+05 1.434840e+05 1.438225e+05 1.438225e+05 1.328613e+05 1.326688e+05 1.217277e+05 1.217277e+05 1.217277e+05 1.401823e+05 1.401823e+05 1.401823e+05 1.400485e+05 8.672539e+04 8.672539e+04 1.230253e+05 6.691427e+04 6.691427e+04 9.086213e+04 8.080492e+04 9.627677e+04 9.627677e+04 9.627677e+04 7.066854e+04 7.066854e+04 1.319486e+05 1.317746e+05 1.317746e+05 1.112624e+05 1.115368e+05 1.093004e+05 1.095662e+05 6.558107e+04 1.419509e+05 1.419509e+05 7.692415e+04 7.692415e+04 7.692415e+04 7.678294e+04 1.406059e+05 8.109622e+04 8.950888e+04 8.950888e+04 8.896939e+04 8.540390e+04 8.540390e+04 6.801216e+04 6.801216e+04 6.756579e+04 1.193613e+05 1.194460e+05 1.194460e+05 9.780238e+04 1.426228e+05 1.426228e+05 1.421440e+05 1.421440e+05 9.965942e+04 9.965942e+04 9.965942e+04 7.565726e+04 7.565726e+04 7.565726e+04 1.007245e+05 1.007245e+05 1.349719e+05 1.421926e+05 1.417770e+05 1.412011e+05 1.331724e+05 1.425188e+05 7.028035e+04 1.121203e+05 1.127429e+05 7.630282e+04 7.630282e+04 1.267548e+05 1.236348e+05 7.766466e+04 7.736596e+04 9.879589e+04 9.879589e+04 1.446291e+05 1.443558e+05 1.437477e+05 1.437477e+05 1.437477e+05 1.440406e+05 1.362605e+05 1.353975e+05 1.372007e+05 1.373904e+05 1.109709e+05 1.109709e+05 1.107304e+05 1.333017e+05 7.210146e+04 7.467502e+04 1.261596e+05 1.238512e+05 1.238512e+05 1.238512e+05 9.659253e+04 8.870886e+04 8.870886e+04 8.870886e+04 1.441938e+05 1.366787e+05 1.417869e+05 1.411232e+05 8.469132e+04 1.196783e+05 1.422653e+05 1.429605e+05 6.738008e+04 6.801710e+04 6.801710e+04 1.161781e+05 1.219183e+05 7.060694e+04 6.869375e+04 1.349886e+05 1.341389e+05 1.341389e+05 7.350626e+04 7.350626e+04 7.380944e+04 7.380944e+04 8.711252e+04 1.272058e+05 1.052939e+05 6.490467e+04 1.385410e+05 1.379051e+05 9.586174e+04 1.045312e+05 1.043327e+05 1.043327e+05 1.368873e+05 1.368873e+05 1.365881e+05 1.365881e+05 9.481284e+04 9.536164e+04 8.306122e+04 8.306122e+04 8.289773e+04 9.132042e+04 9.132042e+04 9.066608e+04 9.066608e+04 8.538988e+04 8.538988e+04 6.596390e+04 1.410842e+05 1.410842e+05 1.335892e+05 1.335892e+05 1.335892e+05 1.295611e+05 7.158376e+04 7.158376e+04 7.727394e+04 7.727394e+04 6.919540e+04 6.937075e+04 1.320572e+05 1.399567e+05 6.479844e+04 6.726095e+04 6.726095e+04 9.900445e+04 9.900445e+04 9.983415e+04 6.829249e+04 6.829249e+04 8.149462e+04 8.149462e+04 1.382864e+05 1.382864e+05 1.123239e+05 1.430784e+05 1.215234e+05 1.215234e+05 1.211259e+05 1.054272e+05 1.059032e+05 6.996973e+04 7.418340e+04 8.605512e+04 1.417086e+05 6.577689e+04 8.995849e+04 8.995849e+04 8.995849e+04 1.029207e+05 1.029207e+05 1.029207e+05 1.091772e+05 9.334201e+04 9.334201e+04 9.334201e+04 9.249330e+04 1.432712e+05 1.427655e+05 1.264451e+05 1.260342e+05 1.260342e+05 1.006179e+05 1.006179e+05 1.006179e+05 1.289399e+05 7.259555e+04 1.408487e+05 1.437150e+05 1.437150e+05 1.432491e+05 1.030583e+05 8.000497e+04 8.000497e+04 8.033700e+04 8.615433e+04 8.615433e+04 1.420374e+05 6.588704e+04 8.664579e+04 8.727442e+04 7.846400e+04 1.108355e+05 1.114818e+05 1.396963e+05 9.660253e+04 9.660253e+04 9.660253e+04 8.193387e+04 8.193387e+04 1.313633e+05 1.310159e+05 1.310159e+05 1.379628e+05 1.373459e+05 7.545001e+04 7.527911e+04 1.385362e+05 1.385362e+05 1.385362e+05 1.382415e+05 7.597915e+04 7.597915e+04 7.626650e+04 6.775687e+04 6.775687e+04 1.136467e+05 1.136467e+05 1.136467e+05 1.133866e+05 8.650419e+04 1.392966e+05 1.392966e+05 1.392966e+05 1.391669e+05 1.403823e+05 7.806152e+04 7.806152e+04 7.805587e+04 7.805587e+04 7.468161e+04 1.322575e+05 1.322575e+05 9.966862e+04 9.898939e+04 1.292030e+05 1.292030e+05 7.681172e+04 7.737064e+04 1.364941e+05 1.432875e+05 1.429419e+05 8.499818e+04 8.506873e+04 1.414830e+05 9.343316e+04 9.343316e+04 9.328617e+04 9.328617e+04 8.470867e+04 9.696841e+04 9.772154e+04 1.248243e+05 8.806082e+04 7.660052e+04 7.745059e+04 1.326215e+05 1.326215e+05 1.426706e+05 1.426706e+05 1.426706e+05 1.422827e+05 6.866943e+04 6.866943e+04 6.815203e+04 1.127263e+05 1.126405e+05 1.230128e+05 6.643322e+04 6.674684e+04 6.674684e+04 6.674684e+04 6.684651e+04 9.136088e+04 1.444972e+05 1.374929e+05 1.363744e+05 1.363744e+05 7.177791e+04 7.177791e+04 7.177791e+04 7.133328e+04 1.416978e+05 1.416978e+05 1.355157e+05 1.355157e+05 1.350664e+05 1.267197e+05 1.199485e+05 1.406189e+05 8.853897e+04 8.796501e+04 1.421641e+05 1.421670e+05 1.061777e+05 1.216266e+05 1.216266e+05 1.216266e+05 1.223902e+05 7.223485e+04 9.429326e+04 9.423319e+04 6.872189e+04 6.928084e+04 1.018709e+05 1.023202e+05 8.120917e+04 8.120917e+04 1.239922e+05 8.424049e+04 8.424049e+04 8.505399e+04 8.265975e+04 8.265975e+04 9.180074e+04 7.368617e+04 7.368617e+04 7.275219e+04 1.354524e+05 1.400500e+05 1.400500e+05 8.996829e+04 9.014466e+04 9.014466e+04 1.155205e+05 7.057777e+04 6.748496e+04 6.773515e+04 1.335755e+05 1.335755e+05 1.042790e+05 8.634364e+04 1.148944e+05 1.147604e+05 1.127022e+05 1.339859e+05 1.339859e+05 1.232223e+05 1.232223e+05 1.232223e+05 1.119424e+05 1.120565e+05 1.287289e+05 1.289042e+05 1.289042e+05 1.046118e+05 1.039335e+05 1.039335e+05 1.175730e+05 1.101441e+05 1.110177e+05 1.377278e+05 1.390376e+05 1.390376e+05 1.390376e+05 1.392974e+05 7.002744e+04 7.807727e+04 9.107069e+04 9.164380e+04 8.110581e+04 8.110581e+04 8.110581e+04 9.720305e+04 9.720305e+04 9.720305e+04 9.748500e+04 9.833572e+04 7.025400e+04 7.487456e+04 7.453219e+04 9.502740e+04 9.502740e+04 7.358398e+04 7.439715e+04 7.440059e+04 7.440059e+04 9.325487e+04 8.411339e+04 8.411339e+04 8.376287e+04 1.259008e+05 1.259008e+05 1.251207e+05 8.868643e+04 8.868643e+04 1.074397e+05 7.768948e+04 7.768948e+04 7.700897e+04 7.700897e+04 6.954347e+04 6.954347e+04 6.954347e+04 1.369195e+05 1.362671e+05 1.362671e+05 6.836653e+04 6.836653e+04 6.836653e+04 6.735065e+04 6.905002e+04 9.613940e+04 1.376022e+05 1.376022e+05 1.366514e+05 1.350720e+05 1.350720e+05 1.350720e+05 1.197483e+05 1.197483e+05 1.192522e+05 1.167415e+05 1.167415e+05 1.174775e+05 7.008600e+04 7.186760e+04 7.186760e+04 1.415170e+05 1.406377e+05 8.726931e+04 8.726931e+04 8.726931e+04 1.414501e+05 7.566810e+04 7.566810e+04 7.600929e+04 7.600929e+04 6.991250e+04 6.991250e+04 7.041485e+04 7.041485e+04 6.843981e+04 6.843981e+04 6.803321e+04 1.138293e+05 1.136692e+05 8.778391e+04 1.321857e+05 1.321857e+05 1.321857e+05 9.719388e+04 1.223915e+05 7.263428e+04 1.191401e+05 1.407070e+05 8.203483e+04 1.245230e+05 1.245230e+05 1.413130e+05 1.405921e+05 1.405921e+05 1.156194e+05 1.158258e+05 1.395093e+05 1.395093e+05 1.383143e+05 7.426533e+04 7.426533e+04 9.909618e+04 1.040085e+05 1.333536e+05 1.095216e+05 1.406818e+05 1.395430e+05 1.395430e+05 8.636421e+04 9.488837e+04 9.244664e+04 1.383226e+05 1.385538e+05 7.084941e+04 7.084941e+04 8.246558e+04 8.246558e+04 1.053223e+05 6.955423e+04 6.950980e+04 6.950980e+04 1.355252e+05 8.528065e+04 8.650217e+04 9.243222e+04 9.243222e+04 9.243222e+04 9.143107e+04 9.143107e+04 1.218124e+05 1.334032e+05 1.375358e+05 1.280335e+05 1.280335e+05 1.118487e+05 1.118487e+05 1.120590e+05 1.107999e+05 1.107999e+05 1.396211e+05 1.396211e+05 1.396211e+05 1.383648e+05 1.383648e+05 1.173316e+05 1.173316e+05 1.181840e+05 1.222205e+05 1.206367e+05 1.206367e+05 1.206367e+05 7.868406e+04 1.236735e+05 1.229838e+05 1.229838e+05 7.916985e+04 7.959905e+04 6.826158e+04 7.076790e+04 1.364716e+05 1.160219e+05 1.150172e+05 1.406377e+05 1.292172e+05 1.292172e+05 1.280458e+05 1.280458e+05 1.303486e+05 1.305783e+05 1.368770e+05 7.244587e+04 7.760841e+04 7.760841e+04 7.771044e+04 6.979161e+04 1.320425e+05 6.862319e+04 9.817207e+04 8.039845e+04 1.379737e+05 1.349609e+05 1.349609e+05 1.347005e+05 1.347005e+05 9.101230e+04 1.029261e+05 1.029261e+05 1.029261e+05 8.763174e+04 1.314792e+05 1.071958e+05 7.439054e+04 7.432317e+04 8.483433e+04 7.000078e+04 7.677470e+04 7.507990e+04 7.284419e+04 7.284419e+04 7.284419e+04 1.239862e+05 8.892679e+04 7.058020e+04 1.285777e+05 1.285777e+05 1.277515e+05 1.116130e+05 9.833388e+04 9.833388e+04 1.343091e+05 1.188428e+05 1.194516e+05 7.158299e+04 1.108847e+05 1.108847e+05 1.123231e+05 6.991241e+04 7.282929e+04 7.282929e+04 7.211537e+04 1.034611e+05 1.034611e+05 1.034611e+05 1.137718e+05 9.359489e+04 1.083297e+05 9.174756e+04 9.070107e+04 9.070107e+04 8.786542e+04 8.120042e+04 1.240780e+05 1.240780e+05 1.304939e+05 8.568520e+04 8.568520e+04 8.568520e+04 8.522017e+04 1.375871e+05 1.158544e+05 1.356582e+05 1.340825e+05 1.012053e+05 1.219209e+05 1.224237e+05 1.353131e+05 1.147259e+05 1.146700e+05 7.131749e+04 1.142489e+05 1.291698e+05 1.291698e+05 1.291698e+05 1.394188e+05 1.388181e+05 1.283260e+05 1.339785e+05 1.394188e+05 7.446447e+04 7.290950e+04 8.266828e+04 1.190825e+05 1.173193e+05 1.096967e+05 7.632580e+04 7.632580e+04 7.632580e+04 8.686484e+04 1.337395e+05 1.337395e+05 1.369256e+05 1.369256e+05 1.126413e+05 7.394668e+04 1.329760e+05 9.965160e+04 9.965160e+04 9.965160e+04 9.491422e+04 1.317814e+05 1.317814e+05 9.899554e+04 1.085007e+05 1.197094e+05 7.667146e+04 1.292368e+05 1.292368e+05 1.292368e+05 7.525186e+04 7.525186e+04 7.525186e+04 1.391022e+05 1.080638e+05 1.347954e+05 1.347954e+05 7.361373e+04 7.361373e+04 7.361373e+04 7.441628e+04 9.352612e+04 9.352612e+04 9.352612e+04 1.251877e+05 1.251877e+05 1.251877e+05 1.280266e+05 1.015348e+05 1.012849e+05 1.033017e+05 1.033017e+05 1.033017e+05 9.624432e+04 9.665849e+04 9.665849e+04 1.241280e+05 1.220543e+05 1.376146e+05 1.009951e+05 1.004379e+05 7.844795e+04 8.110435e+04 1.147630e+05 8.527358e+04 7.752247e+04 7.752247e+04 7.658552e+04 1.310177e+05 1.124699e+05 8.745549e+04 8.683041e+04 9.842883e+04 1.145905e+05 9.236248e+04 9.236248e+04 1.224703e+05 1.244909e+05 1.236890e+05 8.407949e+04 1.078997e+05 1.322340e+05 7.885540e+04 7.885540e+04 7.564750e+04 7.564750e+04 1.263216e+05 1.263216e+05 1.263216e+05 1.245373e+05 1.245373e+05 1.142650e+05 1.280281e+05 1.275946e+05 1.275946e+05 8.519793e+04 1.106528e+05 1.121274e+05 1.175410e+05 1.175410e+05 1.194215e+05 1.249957e+05 7.930105e+04 7.930105e+04 1.230657e+05 1.223054e+05 7.844795e+04 7.844795e+04 8.765046e+04 9.107464e+04 9.107464e+04 9.107464e+04 1.055108e+05 8.354908e+04 8.404098e+04 9.939366e+04 9.939366e+04 9.939366e+04 1.025834e+05 1.037919e+05 1.124912e+05 1.017577e+05 8.682446e+04 1.175886e+05 1.175886e+05 1.175886e+05 1.163879e+05 9.020212e+04 1.239754e+05 1.239754e+05 1.239754e+05 1.202322e+05 8.071044e+04 1.216970e+05 1.216970e+05 1.060153e+05 8.066164e+04 8.066164e+04 8.066164e+04 8.020398e+04 8.020398e+04 1.298182e+05 1.276919e+05 1.276919e+05 8.191127e+04 8.941678e+04 8.941678e+04 1.157709e+05 8.269275e+04 8.269275e+04 8.269275e+04 8.472049e+04 8.472049e+04 8.472049e+04 1.030623e+05 1.030623e+05 1.040632e+05 9.522381e+04 8.210356e+04 8.210356e+04 1.025076e+05 1.090813e+05 1.090813e+05 1.074639e+05 1.074639e+05 1.210111e+05 9.273013e+04 9.317231e+04 9.317231e+04 9.200187e+04 9.200187e+04 9.909256e+04 9.909256e+04 1.011650e+05 1.136451e+05 1.136451e+05 1.121415e+05 1.121415e+05 9.598023e+04 1.142383e+05 1.248227e+05 1.241799e+05 1.241799e+05 1.126851e+05 1.066244e+05 9.836017e+04 1.224132e+05 1.224132e+05 1.141326e+05 1.242103e+05 1.242103e+05 8.303357e+04 8.303357e+04 1.162686e+05 1.203500e+05 1.203500e+05 1.203500e+05 1.184535e+05 1.184535e+05 1.216238e+05 1.093862e+05 1.093862e+05 1.188212e+05 1.188212e+05 1.173037e+05 9.838716e+04 1.056998e+05 8.878236e+04 8.787048e+04 1.213411e+05 1.213411e+05 9.015618e+04 9.015618e+04 1.029380e+05 1.029380e+05 8.449094e+04 1.074137e+05 1.074137e+05 1.058162e+05 9.572957e+04 9.572957e+04 1.155902e+05 1.155902e+05 1.139666e+05 1.098628e+05 1.098628e+05 9.921506e+04 9.921506e+04 1.046585e+05 1.046585e+05 1.017374e+05 1.019968e+05 1.019968e+05 9.240855e+04 9.219507e+04 9.808876e+04 1.091122e+05 1.092740e+05 1.194331e+05 1.189665e+05 1.155526e+05 1.155526e+05 1.192454e+05 9.500579e+04 9.500579e+04 9.298196e+04 1.115448e+05 1.189674e+05 1.207161e+05 1.207161e+05 1.015973e+05 1.015973e+05 1.160812e+05 1.186320e+05 9.848908e+04 9.848908e+04 1.145882e+05 1.145882e+05 9.099705e+04 9.429804e+04 9.429804e+04 9.429804e+04 9.266338e+04 9.266338e+04 1.142002e+05 1.127026e+05 1.101147e+05 1.101147e+05 1.121180e+05 1.121180e+05 1.140629e+05 9.737766e+04 1.175914e+05 1.150801e+05 1.067497e+05 1.043761e+05 1.092164e+05 1.065155e+05 1.117174e+05 1.002064e+05 1.054190e+05 1.081865e+05 1.068191e+05 1.073866e+05 1.110532e+05 1.103659e+05 1.023463e+05 1.023463e+05 1.067041e+05 1.060148e+05 1.090322e+05 1.012155e+05 1.018839e+05 1.074112e+05 1.074112e+05 1.072555e+05 1.072555e+05 1.035684e+05 1.035684e+05 1.062846e+05 1.051409e+05 1.051409e+05 1.051409e+05 1.051177e+05 1.051177e+05 9.781847e+04 9.781847e+04 9.781847e+04 9.323477e+04 9.323477e+04 8.644488e+04 8.740618e+04 1.003770e+05 8.644488e+04 8.644488e+04 8.545770e+04 9.101662e+04 9.389429e+04 9.532726e+04 9.592075e+04 9.606023e+04 9.830815e+04 9.849854e+04 9.992893e+04 9.992893e+04 1.032902e+05 8.467623e+04 1.003770e+05 1.187428e+05 1.128619e+05 1.062336e+05 1.186938e+05 1.186938e+05 1.158963e+05 1.156076e+05 1.158963e+05 1.035591e+05 1.142865e+05 1.047074e+05 1.010102e+05 1.012978e+05 1.012978e+05 1.053444e+05 1.446291e+05 1.446291e+05 1.444972e+05 1.442958e+05 1.442015e+05 1.440854e+05 1.438974e+05 1.436779e+05 1.434986e+05 1.433106e+05 1.431068e+05 1.428966e+05 1.426751e+05 1.424430e+05 1.422444e+05 1.419046e+05 1.416829e+05 1.414706e+05 1.411763e+05 1.408861e+05 1.406278e+05 1.403162e+05 1.400041e+05 1.396745e+05 1.393323e+05 1.389420e+05 1.386076e+05 1.382912e+05 1.379312e+05 1.375045e+05 1.371738e+05 1.367579e+05 1.363781e+05 1.359102e+05 1.354282e+05 1.351050e+05 1.346850e+05 1.342424e+05 1.337242e+05 1.333151e+05 1.328613e+05 1.323817e+05 1.319486e+05 1.314184e+05 1.309094e+05 1.304524e+05 1.299994e+05 1.295202e+05 1.289005e+05 1.281751e+05 1.277289e+05 1.272097e+05 1.266789e+05 1.261845e+05 1.255723e+05 1.250824e+05 1.245328e+05 1.240017e+05 1.234356e+05 1.228637e+05 1.223088e+05 1.217423e+05 1.211080e+05 1.205539e+05 1.199838e+05 1.193613e+05 1.186733e+05 1.181123e+05 1.175377e+05 1.169538e+05 1.162917e+05 1.156922e+05 1.150853e+05 1.144849e+05 1.138115e+05 1.132184e+05 1.125504e+05 1.119136e+05 1.112624e+05 1.106946e+05 1.099635e+05 1.093004e+05 1.086535e+05 1.079819e+05 1.073807e+05 1.067598e+05 1.061371e+05 1.055094e+05 1.048029e+05 1.041402e+05 1.035031e+05 1.028597e+05 1.022903e+05 1.016225e+05 1.009745e+05 1.003901e+05 9.971601e+04 9.908909e+04 9.848129e+04 9.772551e+04 9.712499e+04 9.651316e+04 9.595461e+04 9.523744e+04 9.463217e+04 9.403535e+04 9.343261e+04 9.278680e+04 9.218448e+04 9.160795e+04 9.103321e+04 9.044570e+04 8.986546e+04 8.918749e+04 8.859200e+04 8.793026e+04 8.734371e+04 8.680747e+04 8.621508e+04 8.563971e+04 8.510711e+04 8.455687e+04 8.398565e+04 8.342938e+04 8.289861e+04 8.232034e+04 8.184328e+04 8.127716e+04 8.072631e+04 8.024540e+04 7.977126e+04 7.913587e+04 7.868914e+04 7.822156e+04 7.781017e+04 7.727289e+04 7.679648e+04 7.640348e+04 7.586778e+04 7.548067e+04 7.507628e+04 7.454342e+04 7.415295e+04 7.372270e+04 7.327571e+04 7.290533e+04 7.251892e+04 7.210452e+04 7.169932e+04 7.139984e+04 7.106340e+04 7.063788e+04 7.027788e+04 6.995395e+04 6.959092e+04 6.929080e+04 6.902611e+04 6.860446e+04 6.833190e+04 6.803942e+04 6.778214e+04 6.747081e+04 6.723052e+04 6.695644e+04 6.670711e+04 6.650186e+04 6.630204e+04 6.611715e+04 6.591587e+04 6.575839e+04 6.549209e+04 6.531866e+04 6.514788e+04 6.500526e+04 6.489037e+04 6.471252e+04 6.459696e+04 6.447361e+04 6.433853e+04 6.425096e+04 6.419169e+04 1.025671e+05 1.025671e+05 1.025671e+05 1.042039e+05 1.042039e+05 1.042039e+05 1.045982e+05 1.042723e+05 1.063605e+05 1.052243e+05 1.086330e+05 1.086330e+05 1.086330e+05 1.085713e+05 9.656145e+04 9.656145e+04 9.656145e+04 9.649141e+04 9.715198e+04 1.316142e+05 1.316142e+05 1.316142e+05 1.315284e+05 1.311843e+05 1.311843e+05 1.311843e+05 1.303687e+05 9.937579e+04 9.937579e+04 9.937579e+04 1.000185e+05 1.005626e+05 1.005389e+05 7.878700e+04 7.878700e+04 7.878700e+04 7.781749e+04 7.781749e+04 1.302773e+05 1.302773e+05 1.302773e+05 1.297150e+05 7.298731e+04 7.298731e+04 7.298731e+04 7.209547e+04 7.209547e+04 1.426327e+05 1.426327e+05 1.426327e+05 1.136632e+05 1.136632e+05 1.136632e+05 1.140520e+05 1.075806e+05 1.075806e+05 1.075806e+05 1.278756e+05 1.278756e+05 1.278756e+05 1.278439e+05 8.021009e+04 8.021009e+04 8.027374e+04 8.027374e+04 1.159156e+05 1.159156e+05 1.163980e+05 1.288762e+05 1.288762e+05 1.288762e+05 1.294925e+05 1.294925e+05 6.867586e+04 6.867586e+04 6.867586e+04 6.950275e+04 6.950275e+04 9.908530e+04 9.908530e+04 9.908530e+04 9.814107e+04 9.814107e+04 1.325863e+05 1.325863e+05 1.167679e+05 1.167679e+05 1.167679e+05 1.169156e+05 1.076973e+05 1.076973e+05 1.076973e+05 1.074324e+05 1.074924e+05 1.181141e+05 1.181141e+05 1.181141e+05 1.146253e+05 1.146253e+05 1.148694e+05 1.351050e+05 1.353370e+05 1.353370e+05 6.500526e+04 6.550998e+04 6.550998e+04 1.070523e+05 8.289861e+04 8.332056e+04 1.076217e+05 1.039850e+05 1.039850e+05 1.039850e+05 1.045935e+05 9.870612e+04 1.039437e+05 1.039437e+05 1.039437e+05 1.050079e+05 1.050079e+05 9.552307e+04 9.552307e+04 9.552307e+04 9.641121e+04 8.829836e+04 8.829836e+04 8.829836e+04 8.812453e+04 1.304968e+05 1.302777e+05 1.293124e+05 1.325665e+05 1.325665e+05 1.054513e+05 1.054513e+05 1.054513e+05 1.060463e+05 1.205408e+05 1.205408e+05 1.205408e+05 1.212764e+05 1.212764e+05 1.205877e+05 8.409571e+04 8.409571e+04 8.409571e+04 8.368951e+04 8.822742e+04 8.822742e+04 8.822742e+04 8.901633e+04 8.947692e+04 1.155506e+05 1.155506e+05 1.155506e+05 1.156181e+05 7.131749e+04 6.929567e+04 9.470443e+04 9.470443e+04 9.470443e+04 9.543668e+04 7.961243e+04 7.961243e+04 7.961243e+04 7.987805e+04 1.253845e+05 1.253845e+05 1.253845e+05 1.263060e+05 1.263060e+05 7.542486e+04 7.542486e+04 7.542486e+04 7.581752e+04 1.250438e+05 1.250438e+05 1.250438e+05 1.247819e+05 1.303827e+05 1.303827e+05 1.303827e+05 1.303560e+05 8.410486e+04 8.410486e+04 8.404024e+04 1.081927e+05 1.081927e+05 1.098801e+05 1.098801e+05 1.098801e+05 1.046700e+05 1.046700e+05 1.046700e+05 1.043821e+05 6.530340e+04 6.530340e+04 6.530340e+04 6.521548e+04 6.521548e+04 1.391324e+05 1.391324e+05 1.391324e+05 1.387501e+05 1.387501e+05 1.086272e+05 1.241330e+05 1.241330e+05 1.245375e+05 6.476171e+04 6.476171e+04 6.476171e+04 6.469697e+04 6.992882e+04 6.992882e+04 7.034070e+04 7.034070e+04 1.333685e+05 1.333685e+05 1.336716e+05 1.288604e+05 1.288604e+05 6.836119e+04 6.836119e+04 6.875261e+04 6.875261e+04 1.266611e+05 1.266611e+05 1.266611e+05 1.263985e+05 1.072076e+05 1.068392e+05 1.155593e+05 1.155593e+05 1.155593e+05 1.151669e+05 1.195322e+05 1.195322e+05 1.195322e+05 1.188222e+05 1.188222e+05 6.706597e+04 6.706597e+04 6.706597e+04 6.706622e+04 6.706622e+04 1.171111e+05 1.177392e+05 1.420442e+05 1.420442e+05 1.420442e+05 1.419439e+05 7.130768e+04 7.130768e+04 7.130768e+04 7.057520e+04 7.057520e+04 7.138643e+04 7.165570e+04 1.090534e+05 1.090534e+05 1.090534e+05 1.084091e+05 1.084091e+05 1.011160e+05 1.013742e+05 1.013742e+05 8.072195e+04 8.072195e+04 8.072195e+04 8.103349e+04 8.103349e+04 8.406096e+04 8.406096e+04 8.406096e+04 8.351806e+04 8.351806e+04 7.412520e+04 7.412520e+04 