<?xml version="1.0"?>
 <VTKFile type="UnstructuredGrid" version="1.0" byte_order="LittleEndian" header_type="UInt64">
  <UnstructuredGrid>
    <FieldData>
     <DataArray type="Float64" Name="TimeValue" NumberOfTuples="1" format="ascii">
0.001
     </DataArray>
    </FieldData>
   <Piece NumberOfPoints="3468" NumberOfCells="3392">
    <PointData>
     <DataArray type="Float64" Name="pointP" format="ascii">
1.005007e+05 1.005109e+05 1.005305e+05 1.005667e+05 1.005727e+05 1.006038e+05 1.006038e+05 1.006190e+05 1.006419e+05 1.006707e+05 1.006707e+05 1.006951e+05 1.007026e+05 1.007334e+05 1.007334e+05 1.007479e+05 1.007625e+05 1.007822e+05 1.008067e+05 1.008130e+05 1.008199e+05 1.008480e+05 1.008606e+05 1.008606e+05 1.008845e+05 1.008953e+05 1.008992e+05 1.009107e+05 1.009346e+05 1.009409e+05 1.009513e+05 1.009624e+05 1.009726e+05 1.009807e+05 1.009906e+05 1.010019e+05 1.010174e+05 1.010305e+05 1.010383e+05 1.010471e+05 1.010549e+05 1.010577e+05 1.010693e+05 1.010817e+05 1.010880e+05 1.010908e+05 1.011031e+05 1.011100e+05 1.011135e+05 1.011203e+05 1.011269e+05 1.011348e+05 1.011465e+05 1.011465e+05 1.011581e+05 1.011581e+05 1.011660e+05 1.011756e+05 1.011779e+05 1.011824e+05 1.011913e+05 1.011955e+05 1.011955e+05 1.011997e+05 1.012056e+05 1.012081e+05 1.012154e+05 1.012203e+05 1.012203e+05 1.012267e+05 1.012276e+05 1.012311e+05 1.012355e+05 1.012407e+05 1.012407e+05 1.012438e+05 1.012476e+05 1.012494e+05 1.012514e+05 1.012555e+05 1.012577e+05 1.012577e+05 1.012602e+05 1.012632e+05 1.012658e+05 1.012658e+05 1.012675e+05 1.012709e+05 1.012709e+05 1.012741e+05 1.012758e+05 1.012758e+05 1.012773e+05 1.012785e+05 1.012809e+05 1.012814e+05 1.012840e+05 1.012853e+05 1.012853e+05 1.012873e+05 1.012890e+05 1.012890e+05 1.012903e+05 1.012922e+05 1.012931e+05 1.012959e+05 1.012959e+05 1.012981e+05 1.013000e+05 1.013000e+05 1.013032e+05 1.013038e+05 1.013065e+05 1.013081e+05 1.013081e+05 1.013118e+05 1.013131e+05 1.013138e+05 1.013164e+05 1.013174e+05 1.013195e+05 1.013250e+05 1.013250e+05 1.013250e+05 1.013250e+05 1.013250e+05 1.013054e+05 1.012969e+05 1.012913e+05 1.012993e+05 1.013732e+05 1.013732e+05 1.014309e+05 1.014309e+05 1.012172e+05 1.012172e+05 1.012172e+05 1.012242e+05 1.012242e+05 1.013162e+05 1.013162e+05 1.011472e+05 1.011472e+05 1.011472e+05 1.011840e+05 1.011840e+05 1.012493e+05 1.012493e+05 1.012493e+05 1.012703e+05 1.013280e+05 1.013280e+05 1.013122e+05 1.013032e+05 1.013032e+05 1.013032e+05 1.013049e+05 1.013049e+05 1.013018e+05 1.013076e+05 1.013076e+05 1.013045e+05 1.013168e+05 1.013102e+05 1.013094e+05 1.013177e+05 1.013177e+05 1.013197e+05 1.013197e+05 1.013206e+05 1.013207e+05 1.011595e+05 1.011595e+05 1.011595e+05 1.011383e+05 1.011383e+05 1.011243e+05 1.009239e+05 1.009239e+05 1.009239e+05 1.009225e+05 1.009266e+05 1.011933e+05 1.010885e+05 1.010885e+05 1.010930e+05 1.009366e+05 1.009366e+05 1.009408e+05 1.010892e+05 1.010892e+05 1.010892e+05 1.004869e+05 1.004869e+05 1.004869e+05 1.005621e+05 1.005621e+05 1.005621e+05 1.012099e+05 1.012099e+05 1.012099e+05 1.008055e+05 1.008055e+05 1.008055e+05 1.010252e+05 1.010252e+05 1.010252e+05 1.010292e+05 1.007604e+05 1.007604e+05 1.009220e+05 1.009220e+05 1.009220e+05 1.005085e+05 1.005323e+05 1.009110e+05 1.009110e+05 1.011640e+05 1.011640e+05 1.011640e+05 1.011807e+05 1.011807e+05 1.011457e+05 1.011703e+05 1.011703e+05 1.013106e+05 1.013106e+05 1.013106e+05 1.012306e+05 1.012306e+05 1.008670e+05 1.008670e+05 1.008670e+05 1.009176e+05 1.006942e+05 1.008066e+05 1.010072e+05 1.010072e+05 1.009613e+05 1.009613e+05 1.009613e+05 1.007493e+05 1.006945e+05 1.006945e+05 1.008427e+05 1.008427e+05 1.008427e+05 1.011938e+05 1.011938e+05 1.011938e+05 1.009273e+05 1.009273e+05 1.009273e+05 1.013114e+05 1.012660e+05 1.005134e+05 1.005134e+05 1.005134e+05 1.005601e+05 1.010866e+05 1.010866e+05 1.005742e+05 1.009820e+05 1.009820e+05 1.009820e+05 1.005343e+05 1.005343e+05 1.009914e+05 1.009914e+05 1.008748e+05 1.008748e+05 1.008748e+05 1.006980e+05 1.006980e+05 1.006980e+05 1.007096e+05 1.007096e+05 1.007096e+05 1.005538e+05 1.005538e+05 1.010077e+05 1.010077e+05 1.006062e+05 1.006062e+05 1.006062e+05 1.010009e+05 1.010526e+05 1.010526e+05 1.010526e+05 1.005736e+05 1.010054e+05 1.010054e+05 1.008475e+05 1.008475e+05 1.008475e+05 1.010998e+05 1.010998e+05 1.010998e+05 1.007176e+05 1.007546e+05 1.007546e+05 1.007546e+05 1.006474e+05 1.006474e+05 1.006474e+05 1.005365e+05 1.005426e+05 1.008173e+05 1.008173e+05 1.008173e+05 1.008396e+05 1.008396e+05 1.010937e+05 1.010937e+05 1.010937e+05 1.005906e+05 1.005906e+05 1.005906e+05 1.005940e+05 1.005979e+05 1.005891e+05 1.005891e+05 1.010459e+05 1.010459e+05 1.010459e+05 1.006460e+05 1.006460e+05 1.008096e+05 1.008096e+05 1.005042e+05 1.006285e+05 1.006285e+05 1.007392e+05 1.007392e+05 1.007392e+05 1.009515e+05 1.006293e+05 1.007029e+05 1.007029e+05 1.009936e+05 1.009936e+05 1.009563e+05 1.009563e+05 1.009563e+05 1.008524e+05 1.008524e+05 1.011716e+05 1.011716e+05 1.011716e+05 1.011111e+05 1.011111e+05 1.011111e+05 1.009120e+05 1.005809e+05 1.010730e+05 1.010730e+05 1.010730e+05 1.008202e+05 1.008202e+05 1.008202e+05 1.007682e+05 1.007580e+05 1.005809e+05 1.008553e+05 1.011288e+05 1.011288e+05 1.011288e+05 1.008872e+05 1.008872e+05 1.011520e+05 1.011520e+05 1.011520e+05 1.009108e+05 1.009108e+05 1.009108e+05 1.008820e+05 1.011831e+05 1.011831e+05 1.011831e+05 1.009080e+05 1.008082e+05 1.008082e+05 1.008678e+05 1.010474e+05 1.010474e+05 1.008787e+05 1.009455e+05 1.009455e+05 1.009618e+05 1.009618e+05 1.009330e+05 1.008536e+05 1.011054e+05 1.011054e+05 1.011054e+05 1.009724e+05 1.011815e+05 1.011815e+05 1.007072e+05 1.009822e+05 1.009822e+05 1.009814e+05 1.012351e+05 1.012351e+05 1.012351e+05 1.011645e+05 1.011645e+05 1.010043e+05 1.010043e+05 1.010245e+05 1.010245e+05 1.008964e+05 1.011465e+05 1.011465e+05 1.011465e+05 1.010795e+05 1.010795e+05 1.010795e+05 1.008066e+05 1.011492e+05 1.011492e+05 1.010780e+05 1.010733e+05 1.007503e+05 1.008817e+05 1.009377e+05 1.009377e+05 1.011946e+05 1.011946e+05 1.011946e+05 1.010281e+05 1.012530e+05 1.012530e+05 1.012530e+05 1.010695e+05 1.010695e+05 1.010378e+05 1.009294e+05 1.012341e+05 1.012341e+05 1.012341e+05 1.012035e+05 1.012035e+05 1.012035e+05 1.012194e+05 1.012194e+05 1.011857e+05 1.011857e+05 1.011745e+05 1.011745e+05 1.011643e+05 1.009796e+05 1.009796e+05 1.010383e+05 1.010383e+05 1.011097e+05 1.011097e+05 1.009717e+05 1.012512e+05 1.012576e+05 1.012576e+05 1.012576e+05 1.010986e+05 1.012052e+05 1.012052e+05 1.011255e+05 1.011255e+05 1.011604e+05 1.009969e+05 1.011008e+05 1.011633e+05 1.011633e+05 1.011776e+05 1.011776e+05 1.010741e+05 1.012630e+05 1.012630e+05 1.012630e+05 1.012732e+05 1.012732e+05 1.012732e+05 1.011297e+05 1.011297e+05 1.011297e+05 1.011049e+05 1.011049e+05 1.013057e+05 1.013057e+05 1.013057e+05 1.012603e+05 1.012603e+05 1.012603e+05 1.012031e+05 1.012673e+05 1.012673e+05 1.012673e+05 1.012133e+05 1.012133e+05 1.011355e+05 1.012619e+05 1.012619e+05 1.012869e+05 1.012869e+05 1.012869e+05 1.011469e+05 1.011469e+05 1.011920e+05 1.011920e+05 1.012309e+05 1.012309e+05 1.012309e+05 1.012828e+05 1.012828e+05 1.012828e+05 1.012226e+05 1.012832e+05 1.012832e+05 1.012832e+05 1.013085e+05 1.013085e+05 1.013085e+05 1.012468e+05 1.012468e+05 1.012468e+05 1.012355e+05 1.012459e+05 1.012459e+05 1.012362e+05 1.011900e+05 1.011900e+05 1.013078e+05 1.012440e+05 1.012440e+05 1.012440e+05 1.012867e+05 1.012867e+05 1.012867e+05 1.012497e+05 1.012497e+05 1.012497e+05 1.012685e+05 1.012685e+05 1.012685e+05 1.012587e+05 1.012587e+05 1.012598e+05 1.012598e+05 1.012686e+05 1.012686e+05 1.012770e+05 1.012770e+05 1.012770e+05 1.012396e+05 1.012396e+05 1.012370e+05 1.012370e+05 1.012820e+05 1.012840e+05 1.012840e+05 1.012560e+05 1.012560e+05 1.012630e+05 1.012871e+05 1.012871e+05 1.012871e+05 1.012692e+05 1.012692e+05 1.012781e+05 1.012781e+05 1.012632e+05 1.012868e+05 1.012868e+05 1.012868e+05 1.013670e+05 1.013670e+05 1.013670e+05 1.012898e+05 1.012898e+05 1.012953e+05 1.012953e+05 1.012953e+05 1.012846e+05 1.013001e+05 1.013001e+05 1.012679e+05 1.013135e+05 1.007468e+05 1.012225e+05 1.007352e+05 1.010099e+05 1.013702e+05 1.013135e+05 1.013135e+05 1.013135e+05 1.012734e+05 1.012734e+05 1.012525e+05 1.012552e+05 1.013157e+05 1.012587e+05 1.013431e+05 1.012024e+05 1.012805e+05 1.012805e+05 1.012907e+05 1.012907e+05 1.012907e+05 1.012905e+05 1.012697e+05 1.012522e+05 1.012522e+05 1.012573e+05 1.012573e+05 1.012573e+05 1.012575e+05 1.011685e+05 1.011554e+05 1.006674e+05 1.006901e+05 1.006901e+05 1.005019e+05 1.009054e+05 1.009054e+05 1.012201e+05 1.012327e+05 1.012981e+05 1.012981e+05 1.012981e+05 1.013055e+05 1.013055e+05 1.005416e+05 1.005416e+05 1.007926e+05 1.006532e+05 1.005594e+05 1.005613e+05 1.006051e+05 1.006051e+05 1.006051e+05 1.008474e+05 1.006619e+05 1.007033e+05 1.009763e+05 1.008675e+05 1.008049e+05 1.008049e+05 1.008049e+05 1.007860e+05 1.007860e+05 1.005428e+05 1.005758e+05 1.007119e+05 1.005250e+05 1.008400e+05 1.006471e+05 1.006232e+05 1.006232e+05 1.005893e+05 1.007554e+05 1.007554e+05 1.007337e+05 1.006231e+05 1.007570e+05 1.008807e+05 1.008867e+05 1.009125e+05 1.007300e+05 1.007300e+05 1.007300e+05 1.006767e+05 1.006767e+05 1.008202e+05 1.008259e+05 1.006917e+05 1.006672e+05 1.007680e+05 1.005957e+05 1.006387e+05 1.010655e+05 1.008311e+05 1.006801e+05 1.008766e+05 1.007363e+05 1.007769e+05 1.009647e+05 1.009589e+05 1.010154e+05 1.007551e+05 1.006123e+05 1.011431e+05 1.011431e+05 1.006727e+05 1.010220e+05 1.010220e+05 1.008579e+05 1.008579e+05 1.010140e+05 1.011578e+05 1.011241e+05 1.011241e+05 1.011241e+05 1.007696e+05 1.007811e+05 1.007811e+05 1.011489e+05 1.011801e+05 1.008696e+05 1.011135e+05 1.011106e+05 1.011106e+05 1.010284e+05 1.009505e+05 1.009749e+05 1.009749e+05 1.010450e+05 1.010390e+05 1.010545e+05 1.011138e+05 1.011133e+05 1.011978e+05 1.011978e+05 1.009478e+05 1.008496e+05 1.010303e+05 1.010303e+05 1.010303e+05 1.010797e+05 1.011170e+05 1.008847e+05 1.010200e+05 1.011673e+05 1.011673e+05 1.011673e+05 1.009870e+05 1.009870e+05 1.011345e+05 1.010737e+05 1.012040e+05 1.010566e+05 1.011913e+05 1.012145e+05 1.012145e+05 1.011729e+05 1.011599e+05 1.010843e+05 1.011310e+05 1.011342e+05 1.011026e+05 1.012066e+05 1.012066e+05 1.012066e+05 1.011784e+05 1.010397e+05 1.010886e+05 1.012102e+05 1.009969e+05 1.010601e+05 1.010601e+05 1.012242e+05 1.012213e+05 1.012718e+05 1.012718e+05 1.010718e+05 1.012496e+05 1.012496e+05 1.012462e+05 1.012141e+05 1.012141e+05 1.012445e+05 1.012445e+05 1.011211e+05 1.012278e+05 1.012508e+05 1.012540e+05 1.012540e+05 1.011018e+05 1.011897e+05 1.011897e+05 1.012197e+05 1.012197e+05 1.012197e+05 1.011447e+05 1.011447e+05 1.011742e+05 1.012400e+05 1.012400e+05 1.012693e+05 1.012648e+05 1.012497e+05 1.011893e+05 1.012300e+05 1.011944e+05 1.012018e+05 1.012166e+05 1.012137e+05 1.012561e+05 1.012782e+05 1.012782e+05 1.012782e+05 1.012538e+05 1.012600e+05 1.012652e+05 1.012652e+05 1.012652e+05 1.012401e+05 1.012264e+05 1.012264e+05 1.012264e+05 1.012756e+05 1.011730e+05 1.012793e+05 1.012793e+05 1.012578e+05 1.011940e+05 1.011434e+05 1.011855e+05 1.012274e+05 1.013041e+05 1.013041e+05 1.012370e+05 1.012060e+05 1.012674e+05 1.011808e+05 1.012450e+05 1.012450e+05 1.012450e+05 1.012741e+05 1.012696e+05 1.012696e+05 1.012696e+05 1.012833e+05 1.012833e+05 1.012761e+05 1.012338e+05 1.012930e+05 1.012922e+05 1.012621e+05 1.012674e+05 1.012674e+05 1.012895e+05 1.012895e+05 1.011994e+05 1.012717e+05 1.012855e+05 1.012855e+05 1.012770e+05 1.012770e+05 1.011409e+05 1.012634e+05 1.012471e+05 1.012966e+05 1.012966e+05 1.012941e+05 1.012941e+05 1.012941e+05 1.012974e+05 1.012905e+05 1.012905e+05 1.012587e+05 1.012379e+05 1.012435e+05 1.012733e+05 1.012744e+05 1.012744e+05 1.012960e+05 1.012673e+05 1.012813e+05 1.012729e+05 1.012762e+05 1.012762e+05 1.012692e+05 1.012652e+05 1.012840e+05 1.012840e+05 1.012917e+05 1.012917e+05 1.012779e+05 1.012779e+05 1.013160e+05 1.013025e+05 1.013138e+05 1.013081e+05 1.012336e+05 1.012336e+05 1.012852e+05 1.012991e+05 1.012991e+05 1.013002e+05 1.013002e+05 1.013097e+05 1.013097e+05 1.012933e+05 1.012446e+05 1.012416e+05 1.012829e+05 1.012730e+05 1.012995e+05 1.012812e+05 1.012800e+05 1.013013e+05 1.013013e+05 1.012152e+05 1.012880e+05 1.012880e+05 1.012880e+05 1.012887e+05 1.013130e+05 1.013104e+05 1.012717e+05 1.012453e+05 1.012778e+05 1.012769e+05 1.012959e+05 1.013117e+05 1.012626e+05 1.013138e+05 1.013030e+05 1.012798e+05 1.012981e+05 1.012831e+05 1.013058e+05 1.012981e+05 1.012949e+05 1.012932e+05 1.012957e+05 1.012694e+05 1.012760e+05 1.012874e+05 1.012823e+05 1.012823e+05 1.012929e+05 1.012929e+05 1.012856e+05 1.012856e+05 1.012853e+05 1.012908e+05 1.012968e+05 1.013250e+05 1.013250e+05 1.013250e+05 1.013250e+05 1.013169e+05 1.013078e+05 1.012973e+05 1.012946e+05 1.013054e+05 1.013858e+05 1.015409e+05 1.012854e+05 1.012854e+05 1.012854e+05 1.012816e+05 1.013004e+05 1.012700e+05 1.012719e+05 1.012968e+05 1.012968e+05 1.012968e+05 1.012961e+05 1.012659e+05 1.012659e+05 1.012659e+05 1.012670e+05 1.013901e+05 1.013901e+05 1.013901e+05 1.013811e+05 1.013811e+05 1.013065e+05 1.013065e+05 1.013065e+05 1.013103e+05 1.013103e+05 1.013557e+05 1.013042e+05 1.013042e+05 1.013077e+05 1.013007e+05 1.013007e+05 1.013004e+05 1.012626e+05 1.013129e+05 1.013129e+05 1.013129e+05 1.013179e+05 1.013179e+05 1.013179e+05 1.013189e+05 1.013081e+05 1.013097e+05 1.013097e+05 1.013097e+05 1.013702e+05 1.014050e+05 1.013702e+05 1.013702e+05 1.013106e+05 1.013121e+05 1.015074e+05 1.015571e+05 1.015074e+05 1.015074e+05 1.012749e+05 1.012832e+05 1.012832e+05 1.012832e+05 1.012835e+05 1.012930e+05 1.012930e+05 1.013169e+05 1.016580e+05 1.013090e+05 1.013090e+05 1.013141e+05 1.012785e+05 1.012785e+05 1.014566e+05 1.009354e+05 1.009354e+05 1.009354e+05 1.009409e+05 1.011726e+05 1.011726e+05 1.011726e+05 1.011775e+05 1.011775e+05 1.012667e+05 1.012667e+05 1.012667e+05 1.012635e+05 1.012635e+05 1.011077e+05 1.011077e+05 1.011077e+05 1.010973e+05 1.012585e+05 1.012585e+05 1.012585e+05 1.012597e+05 1.011784e+05 1.011784e+05 1.011784e+05 1.011807e+05 1.011826e+05 1.011829e+05 1.010215e+05 1.010215e+05 1.010215e+05 1.010174e+05 1.010173e+05 1.011100e+05 1.011100e+05 1.011376e+05 1.011376e+05 1.011376e+05 1.009943e+05 1.009943e+05 1.009943e+05 1.009311e+05 1.009311e+05 1.009311e+05 1.012512e+05 1.012512e+05 1.012405e+05 1.012405e+05 1.012748e+05 1.012748e+05 1.012748e+05 1.012742e+05 1.007388e+05 1.007388e+05 1.007388e+05 1.011904e+05 1.011904e+05 1.011904e+05 1.009545e+05 1.009545e+05 1.009545e+05 1.011306e+05 1.011306e+05 1.011306e+05 1.008686e+05 1.008686e+05 1.008686e+05 1.008388e+05 1.008388e+05 1.007206e+05 1.007206e+05 1.006334e+05 1.006334e+05 1.006334e+05 1.009054e+05 1.009054e+05 1.009054e+05 1.010594e+05 1.010594e+05 1.010594e+05 1.010053e+05 1.009055e+05 1.012563e+05 1.012563e+05 1.012563e+05 1.012049e+05 1.012049e+05 1.012049e+05 1.011447e+05 1.011447e+05 1.013411e+05 1.013411e+05 1.013245e+05 1.012045e+05 1.012045e+05 1.012045e+05 1.012029e+05 1.012029e+05 1.012029e+05 1.009894e+05 1.010160e+05 1.011236e+05 1.011236e+05 1.011236e+05 1.012479e+05 1.012479e+05 1.012479e+05 1.011336e+05 1.008571e+05 1.009073e+05 1.009073e+05 1.009073e+05 1.006409e+05 1.006409e+05 1.006409e+05 1.009753e+05 1.009753e+05 1.010081e+05 1.010081e+05 1.011018e+05 1.011448e+05 1.011448e+05 1.012561e+05 1.012561e+05 1.012561e+05 1.012479e+05 1.012590e+05 1.012590e+05 1.013011e+05 1.013011e+05 1.013011e+05 1.005716e+05 1.007869e+05 1.007869e+05 1.007869e+05 1.006498e+05 1.006498e+05 1.006265e+05 1.010549e+05 1.010549e+05 1.006710e+05 1.006710e+05 1.009554e+05 1.009554e+05 1.009554e+05 1.006130e+05 1.006992e+05 1.006992e+05 1.006992e+05 1.008451e+05 1.008451e+05 1.008451e+05 1.007237e+05 1.007237e+05 1.008992e+05 1.008992e+05 1.008992e+05 1.009132e+05 1.007587e+05 1.007587e+05 1.007587e+05 1.008541e+05 1.008541e+05 1.008541e+05 1.005847e+05 1.005847e+05 1.005847e+05 1.006166e+05 1.006166e+05 1.006197e+05 1.007874e+05 1.007874e+05 1.007877e+05 1.007877e+05 1.006858e+05 1.006858e+05 1.008222e+05 1.006197e+05 1.006197e+05 1.010417e+05 1.010417e+05 1.010417e+05 1.007336e+05 1.006539e+05 1.006477e+05 1.008832e+05 1.008832e+05 1.010614e+05 1.010614e+05 1.010614e+05 1.010345e+05 1.009965e+05 1.012183e+05 1.012183e+05 1.012183e+05 1.006627e+05 1.011110e+05 1.011110e+05 1.011110e+05 1.009493e+05 1.009493e+05 1.009493e+05 1.007518e+05 1.012277e+05 1.012277e+05 1.012277e+05 1.010657e+05 1.010202e+05 1.010202e+05 1.010202e+05 1.010414e+05 1.006965e+05 1.006460e+05 1.012380e+05 1.012380e+05 1.012380e+05 1.008071e+05 1.008071e+05 1.007028e+05 1.007028e+05 1.007539e+05 1.007839e+05 1.011373e+05 1.008201e+05 1.009639e+05 1.009639e+05 1.011552e+05 1.011552e+05 1.011552e+05 1.012466e+05 1.012466e+05 1.012466e+05 1.010961e+05 1.010961e+05 1.010961e+05 1.012384e+05 1.012384e+05 1.009509e+05 1.009509e+05 1.009850e+05 1.009850e+05 1.010700e+05 1.010700e+05 1.010700e+05 1.008463e+05 1.008463e+05 1.007356e+05 1.007356e+05 1.010575e+05 1.010575e+05 1.007638e+05 1.007638e+05 1.007638e+05 1.009183e+05 1.012446e+05 1.012446e+05 1.011156e+05 1.010905e+05 1.010905e+05 1.010905e+05 1.007992e+05 1.008943e+05 1.011554e+05 1.011554e+05 1.011554e+05 1.011665e+05 1.011665e+05 1.010470e+05 1.010470e+05 1.010470e+05 1.008130e+05 1.011918e+05 1.011918e+05 1.011918e+05 1.010346e+05 1.010778e+05 1.011729e+05 1.012099e+05 1.012099e+05 1.012181e+05 1.012181e+05 1.010891e+05 1.011599e+05 1.011599e+05 1.011599e+05 1.011155e+05 1.009516e+05 1.009516e+05 1.011711e+05 1.011711e+05 1.011888e+05 1.011888e+05 1.012616e+05 1.012616e+05 1.010645e+05 1.009055e+05 1.012033e+05 1.012033e+05 1.012033e+05 1.009746e+05 1.009988e+05 1.012730e+05 1.012730e+05 1.012730e+05 1.011554e+05 1.010593e+05 1.010593e+05 1.010357e+05 1.012828e+05 1.012828e+05 1.012828e+05 1.011765e+05 1.010234e+05 1.010545e+05 1.012746e+05 1.012746e+05 1.012336e+05 1.012336e+05 1.012336e+05 1.012394e+05 1.012394e+05 1.012394e+05 1.010844e+05 1.011281e+05 1.012839e+05 1.012839e+05 1.012839e+05 1.012117e+05 1.012117e+05 1.012117e+05 1.012099e+05 1.012812e+05 1.012812e+05 1.012812e+05 1.011700e+05 1.012860e+05 1.012086e+05 1.012450e+05 1.012450e+05 1.011553e+05 1.011604e+05 1.011727e+05 1.012879e+05 1.012879e+05 1.012879e+05 1.012755e+05 1.013048e+05 1.013048e+05 1.013048e+05 1.012499e+05 1.012284e+05 1.012284e+05 1.012251e+05 1.012273e+05 1.012837e+05 1.012837e+05 1.011774e+05 1.011774e+05 1.012768e+05 1.012705e+05 1.012705e+05 1.012733e+05 1.012269e+05 1.012269e+05 1.012118e+05 1.012017e+05 1.012966e+05 1.012966e+05 1.012975e+05 1.012839e+05 1.012839e+05 1.012473e+05 1.013161e+05 1.012712e+05 1.012712e+05 1.012757e+05 1.012806e+05 1.012806e+05 1.012806e+05 1.012648e+05 1.014539e+05 1.014539e+05 1.012668e+05 1.012668e+05 1.013128e+05 1.012881e+05 1.013033e+05 1.013033e+05 1.012865e+05 1.012891e+05 1.012891e+05 1.012505e+05 1.011614e+05 1.012009e+05 1.012081e+05 1.012081e+05 1.012912e+05 1.012244e+05 1.012039e+05 1.012039e+05 1.005716e+05 1.005716e+05 1.012379e+05 1.011287e+05 1.012762e+05 1.012762e+05 1.012438e+05 1.012167e+05 1.011801e+05 1.011801e+05 1.010137e+05 1.011198e+05 1.007822e+05 1.012355e+05 1.012959e+05 1.013038e+05 1.013038e+05 1.013065e+05 1.005727e+05 1.005727e+05 1.006038e+05 1.006248e+05 1.006248e+05 1.005007e+05 1.005092e+05 1.005007e+05 1.005868e+05 1.007918e+05 1.005210e+05 1.005515e+05 1.005515e+05 1.005515e+05 1.006707e+05 1.007033e+05 1.007033e+05 1.007033e+05 1.006951e+05 1.006951e+05 1.005310e+05 1.008130e+05 1.008130e+05 1.007334e+05 1.007479e+05 1.006574e+05 1.006574e+05 1.007625e+05 1.009624e+05 1.008246e+05 1.007540e+05 1.008606e+05 1.005424e+05 1.005424e+05 1.007253e+05 1.005202e+05 1.007684e+05 1.006159e+05 1.005857e+05 1.008953e+05 1.008953e+05 1.009726e+05 1.008845e+05 1.009775e+05 1.008150e+05 1.007276e+05 1.006891e+05 1.008665e+05 1.009145e+05 1.009145e+05 1.009145e+05 1.009175e+05 1.007726e+05 1.007891e+05 1.007359e+05 1.007359e+05 1.008391e+05 1.010880e+05 1.010880e+05 1.008383e+05 1.007058e+05 1.008578e+05 1.009162e+05 1.010383e+05 1.010383e+05 1.008180e+05 1.008180e+05 1.008180e+05 1.009863e+05 1.009863e+05 1.007976e+05 1.009906e+05 1.009243e+05 1.010770e+05 1.010770e+05 1.010770e+05 1.008460e+05 1.010692e+05 1.010692e+05 1.009702e+05 1.009284e+05 1.011660e+05 1.011660e+05 1.010019e+05 1.010174e+05 1.010174e+05 1.011581e+05 1.010305e+05 1.007586e+05 1.009737e+05 1.010565e+05 1.010117e+05 1.010117e+05 1.011392e+05 1.011392e+05 1.011392e+05 1.008772e+05 1.011203e+05 1.011031e+05 1.008709e+05 1.008954e+05 1.010167e+05 1.010256e+05 1.010950e+05 1.011110e+05 1.011110e+05 1.009760e+05 1.009760e+05 1.009449e+05 1.009428e+05 1.008182e+05 1.009980e+05 1.010459e+05 1.008973e+05 1.009551e+05 1.011465e+05 1.011249e+05 1.011249e+05 1.011249e+05 1.011849e+05 1.009386e+05 1.010905e+05 1.010905e+05 1.011955e+05 1.011355e+05 1.012154e+05 1.012154e+05 1.011937e+05 1.011453e+05 1.011563e+05 1.011563e+05 1.012267e+05 1.012056e+05 1.012056e+05 1.011649e+05 1.011356e+05 1.011997e+05 1.012146e+05 1.011078e+05 1.010724e+05 1.010844e+05 1.011505e+05 1.010718e+05 1.012296e+05 1.012125e+05 1.012030e+05 1.012092e+05 1.011970e+05 1.011278e+05 1.012476e+05 1.012476e+05 1.012494e+05 1.012492e+05 1.010303e+05 1.012194e+05 1.012194e+05 1.012512e+05 1.012512e+05 1.012520e+05 1.011430e+05 1.012659e+05 1.011590e+05 1.012218e+05 1.012354e+05 1.011521e+05 1.012407e+05 1.011049e+05 1.012259e+05 1.012259e+05 1.012555e+05 1.011939e+05 1.012809e+05 1.012809e+05 1.012758e+05 1.012573e+05 1.011979e+05 1.010853e+05 1.012741e+05 1.011797e+05 1.012644e+05 1.012644e+05 1.012658e+05 1.012632e+05 1.012518e+05 1.012709e+05 1.012715e+05 1.012111e+05 1.012726e+05 1.012435e+05 1.012435e+05 1.012349e+05 1.012773e+05 1.012785e+05 1.009858e+05 1.012853e+05 1.012597e+05 1.012890e+05 1.012282e+05 1.012970e+05 1.012970e+05 1.012675e+05 1.012749e+05 1.012160e+05 1.012160e+05 1.012940e+05 1.012940e+05 1.012940e+05 1.012392e+05 1.012811e+05 1.012552e+05 1.011113e+05 1.012669e+05 1.012840e+05 1.010946e+05 1.012873e+05 1.012873e+05 1.012784e+05 1.011886e+05 1.012806e+05 1.012701e+05 1.012835e+05 1.012711e+05 1.012837e+05 1.012858e+05 1.012858e+05 1.012527e+05 1.012521e+05 1.012973e+05 1.012748e+05 1.012567e+05 1.012567e+05 1.012567e+05 1.012679e+05 1.012980e+05 1.012896e+05 1.012915e+05 1.012915e+05 1.012915e+05 1.013000e+05 1.012695e+05 1.012695e+05 1.012947e+05 1.012963e+05 1.012858e+05 1.012922e+05 1.012876e+05 1.013039e+05 1.013164e+05 1.012986e+05 1.012977e+05 1.012588e+05 1.013008e+05 1.013059e+05 1.012641e+05 1.012793e+05 1.012793e+05 1.012888e+05 1.012888e+05 1.012912e+05 1.012865e+05 1.012959e+05 1.012768e+05 1.012858e+05 1.012917e+05 1.012927e+05 1.013131e+05 1.011874e+05 1.012992e+05 1.012943e+05 1.012912e+05 1.012916e+05 1.013015e+05 1.012848e+05 1.012913e+05 1.012894e+05 1.012217e+05 1.013059e+05 1.013195e+05 1.012922e+05 1.012922e+05 1.013007e+05 1.013007e+05 1.012367e+05 1.012367e+05 1.013067e+05 1.012916e+05 1.012868e+05 1.013079e+05 1.012854e+05 1.012725e+05 1.012641e+05 1.013100e+05 1.012882e+05 1.012973e+05 1.012936e+05 1.012978e+05 1.013183e+05 1.013209e+05 1.013184e+05 1.005007e+05 1.005109e+05 1.005305e+05 1.005667e+05 1.005727e+05 1.006038e+05 1.006038e+05 1.006190e+05 1.006419e+05 1.006707e+05 1.006707e+05 1.006951e+05 1.007026e+05 1.007334e+05 1.007334e+05 1.007479e+05 1.007625e+05 1.007822e+05 1.008067e+05 1.008130e+05 1.008199e+05 1.008480e+05 1.008606e+05 1.008606e+05 1.008845e+05 1.008953e+05 1.008992e+05 1.009107e+05 1.009346e+05 1.009409e+05 1.009513e+05 1.009624e+05 1.009726e+05 1.009807e+05 1.009906e+05 1.010019e+05 1.010174e+05 1.010305e+05 1.010383e+05 1.010471e+05 1.010549e+05 1.010577e+05 1.010693e+05 1.010817e+05 1.010880e+05 1.010908e+05 1.011031e+05 1.011100e+05 1.011135e+05 1.011203e+05 1.011269e+05 1.011348e+05 1.011465e+05 1.011465e+05 1.011581e+05 1.011581e+05 1.011660e+05 1.011756e+05 1.011779e+05 1.011824e+05 1.011913e+05 1.011955e+05 1.011955e+05 1.011997e+05 1.012056e+05 1.012081e+05 1.012154e+05 1.012203e+05 1.012203e+05 1.012267e+05 1.012276e+05 1.012311e+05 1.012355e+05 1.012407e+05 1.012407e+05 1.012438e+05 1.012476e+05 1.012494e+05 1.012514e+05 1.012555e+05 1.012577e+05 1.012577e+05 1.012602e+05 1.012632e+05 1.012658e+05 1.012658e+05 1.012675e+05 1.012709e+05 1.012709e+05 1.012741e+05 1.012758e+05 1.012758e+05 1.012773e+05 1.012785e+05 1.012809e+05 1.012814e+05 1.012840e+05 1.012853e+05 1.012853e+05 1.012873e+05 1.012890e+05 1.012890e+05 1.012903e+05 1.012922e+05 1.012931e+05 1.012959e+05 1.012959e+05 1.012981e+05 1.013000e+05 1.013000e+05 1.013032e+05 1.013038e+05 1.013065e+05 1.013081e+05 1.013081e+05 1.013118e+05 1.013131e+05 1.013138e+05 1.013164e+05 1.013174e+05 1.013195e+05 1.013250e+05 1.013250e+05 1.013250e+05 1.013250e+05 1.013250e+05 1.013168e+05 1.013054e+05 1.012908e+05 1.012913e+05 1.013280e+05 1.014309e+05 1.014309e+05 1.014309e+05 1.012172e+05 1.012172e+05 1.012172e+05 1.012242e+05 1.012242e+05 1.013162e+05 1.013162e+05 1.011472e+05 1.011472e+05 1.011472e+05 1.011840e+05 1.011840e+05 1.012493e+05 1.012493e+05 1.012493e+05 1.012703e+05 1.013280e+05 1.013280e+05 1.013122e+05 1.013032e+05 1.013032e+05 1.013032e+05 1.013049e+05 1.013049e+05 1.013018e+05 1.013076e+05 1.013076e+05 1.013045e+05 1.013168e+05 1.013102e+05 1.013094e+05 1.013177e+05 1.013177e+05 1.013197e+05 1.013197e+05 1.013206e+05 1.013207e+05 1.011595e+05 1.011595e+05 1.011595e+05 1.011383e+05 1.011383e+05 1.011243e+05 1.009239e+05 1.009239e+05 1.009239e+05 1.009225e+05 1.009266e+05 1.011933e+05 1.010885e+05 1.010885e+05 1.010930e+05 1.009366e+05 1.009366e+05 1.009408e+05 1.010892e+05 1.010892e+05 1.010892e+05 1.004869e+05 1.004869e+05 1.004869e+05 1.005621e+05 1.005621e+05 1.005621e+05 1.012099e+05 1.012099e+05 1.012099e+05 1.008055e+05 1.008055e+05 1.008055e+05 1.010252e+05 1.010252e+05 1.010252e+05 1.010292e+05 1.007604e+05 1.007604e+05 1.009220e+05 1.009220e+05 1.009220e+05 1.005085e+05 1.005323e+05 1.009110e+05 1.009110e+05 1.011640e+05 1.011640e+05 1.011640e+05 1.011807e+05 1.011807e+05 1.011457e+05 1.011703e+05 1.011703e+05 1.013106e+05 1.013106e+05 1.013106e+05 1.012306e+05 1.012306e+05 1.008670e+05 1.008670e+05 1.008670e+05 1.009176e+05 1.006942e+05 1.008066e+05 1.010072e+05 1.010072e+05 1.009613e+05 1.009613e+05 1.009613e+05 1.007493e+05 1.006945e+05 1.006945e+05 1.008427e+05 1.008427e+05 1.008427e+05 1.011938e+05 1.011938e+05 1.011938e+05 1.009273e+05 1.009273e+05 1.009273e+05 1.013114e+05 1.012660e+05 1.005134e+05 1.005134e+05 1.005134e+05 1.005601e+05 1.010866e+05 1.010866e+05 1.005742e+05 1.009820e+05 1.009820e+05 1.009820e+05 1.005343e+05 1.005343e+05 1.009914e+05 1.009914e+05 1.008748e+05 1.008748e+05 1.008748e+05 1.006980e+05 1.006980e+05 1.006980e+05 1.007096e+05 1.007096e+05 1.007096e+05 1.005538e+05 1.005538e+05 1.010077e+05 1.010077e+05 1.006062e+05 1.006062e+05 1.006062e+05 1.010009e+05 1.010526e+05 1.010526e+05 1.010526e+05 1.005736e+05 1.010054e+05 1.010054e+05 1.008475e+05 1.008475e+05 1.008475e+05 1.010998e+05 1.010998e+05 1.010998e+05 1.007176e+05 1.007546e+05 1.007546e+05 1.007546e+05 1.006474e+05 1.006474e+05 1.006474e+05 1.005365e+05 1.005426e+05 1.008173e+05 1.008173e+05 1.008173e+05 1.008396e+05 1.008396e+05 1.010937e+05 1.010937e+05 1.010937e+05 1.005906e+05 1.005906e+05 1.005906e+05 1.005940e+05 1.005979e+05 1.005891e+05 1.005891e+05 1.010459e+05 1.010459e+05 1.010459e+05 1.006460e+05 1.006460e+05 1.008096e+05 1.008096e+05 1.005042e+05 1.006285e+05 1.006285e+05 1.007392e+05 1.007392e+05 1.007392e+05 1.009515e+05 1.006293e+05 1.007029e+05 1.007029e+05 1.009936e+05 1.009936e+05 1.009563e+05 1.009563e+05 1.009563e+05 1.008524e+05 1.008524e+05 1.011716e+05 1.011716e+05 1.011716e+05 1.011111e+05 1.011111e+05 1.011111e+05 1.009120e+05 1.005809e+05 1.010730e+05 1.010730e+05 1.010730e+05 1.008202e+05 1.008202e+05 1.008202e+05 1.007682e+05 1.007580e+05 1.005809e+05 1.008553e+05 1.011288e+05 1.011288e+05 1.011288e+05 1.008872e+05 1.008872e+05 1.011520e+05 1.011520e+05 1.011520e+05 1.009108e+05 1.009108e+05 1.009108e+05 1.008820e+05 1.011831e+05 1.011831e+05 1.011831e+05 1.009080e+05 1.008082e+05 1.008082e+05 1.008678e+05 1.010474e+05 1.010474e+05 1.008787e+05 1.009455e+05 1.009455e+05 1.009618e+05 1.009618e+05 1.009330e+05 1.008536e+05 1.011054e+05 1.011054e+05 1.011054e+05 1.009724e+05 1.011815e+05 1.011815e+05 1.007072e+05 1.009822e+05 1.009822e+05 1.009814e+05 1.012351e+05 1.012351e+05 1.012351e+05 1.011645e+05 1.011645e+05 1.010043e+05 1.010043e+05 1.010245e+05 1.010245e+05 1.008964e+05 1.011465e+05 1.011465e+05 1.011465e+05 1.010795e+05 1.010795e+05 1.010795e+05 1.008066e+05 1.011492e+05 1.011492e+05 1.010780e+05 1.010733e+05 1.007503e+05 1.008817e+05 1.009377e+05 1.009377e+05 1.011946e+05 1.011946e+05 1.011946e+05 1.010281e+05 1.012530e+05 1.012530e+05 1.012530e+05 1.010695e+05 1.010695e+05 1.010378e+05 1.009294e+05 1.012341e+05 1.012341e+05 1.012341e+05 1.012035e+05 1.012035e+05 1.012035e+05 1.012194e+05 1.012194e+05 1.011857e+05 1.011857e+05 1.011745e+05 1.011745e+05 1.011643e+05 1.009796e+05 1.009796e+05 1.010383e+05 1.010383e+05 1.011097e+05 1.011097e+05 1.009717e+05 1.012512e+05 1.012576e+05 1.012576e+05 1.012576e+05 1.010986e+05 1.012052e+05 1.012052e+05 1.011255e+05 1.011255e+05 1.011604e+05 1.009969e+05 1.011008e+05 1.011633e+05 1.011633e+05 1.011776e+05 1.011776e+05 1.010741e+05 1.012630e+05 1.012630e+05 1.012630e+05 1.012732e+05 1.012732e+05 1.012732e+05 1.011297e+05 1.011297e+05 1.011297e+05 1.011049e+05 1.011049e+05 1.013057e+05 1.013057e+05 1.013057e+05 1.012603e+05 1.012603e+05 1.012603e+05 1.012031e+05 1.012673e+05 1.012673e+05 1.012673e+05 1.012133e+05 1.012133e+05 1.011355e+05 1.012619e+05 1.012619e+05 1.012869e+05 1.012869e+05 1.012869e+05 1.011469e+05 1.011469e+05 1.011920e+05 1.011920e+05 1.012309e+05 1.012309e+05 1.012309e+05 1.012828e+05 1.012828e+05 1.012828e+05 1.012226e+05 1.012832e+05 1.012832e+05 1.012832e+05 1.013085e+05 1.013085e+05 1.013085e+05 1.012468e+05 1.012468e+05 1.012468e+05 1.012355e+05 1.012459e+05 1.012459e+05 1.012362e+05 1.011900e+05 1.011900e+05 1.013078e+05 1.012440e+05 1.012440e+05 1.012440e+05 1.012867e+05 1.012867e+05 1.012867e+05 1.012497e+05 1.012497e+05 1.012497e+05 1.012685e+05 1.012685e+05 1.